ITEM: TIMESTEP
0
ITEM: NUMBER OF ATOMS
2048
ITEM: BOX BOUNDS pp pp pp
0.0000000000000000e+00 1.3153131063095840e+01
0.0000000000000000e+00 1.3153131063095840e+01
0.0000000000000000e+00 1.3153131063095840e+01
ITEM: ATOMS id type xs ys zs
1 1 0 0 0
2 1 0.0625 0.0625 0
3 1 0.0625 0 0.0625
4 1 0 0.0625 0.0625
5 1 0.125 0 0
6 1 0.1875 0.0625 0
7 1 0.1875 0 0.0625
8 1 0.125 0.0625 0.0625
9 1 0.25 0 0
10 1 0.3125 0.0625 0
11 1 0.3125 0 0.0625
12 1 0.25 0.0625 0.0625
13 1 0.375 0 0
14 1 0.4375 0.0625 0
15 1 0.4375 0 0.0625
16 1 0.375 0.0625 0.0625
17 1 0 0.125 0
18 1 0.0625 0.1875 0
19 1 0.0625 0.125 0.0625
20 1 0 0.1875 0.0625
21 1 0.125 0.125 0
22 1 0.1875 0.1875 0
23 1 0.1875 0.125 0.0625
24 1 0.125 0.1875 0.0625
25 1 0.25 0.125 0
26 1 0.3125 0.1875 0
27 1 0.3125 0.125 0.0625
28 1 0.25 0.1875 0.0625
29 1 0.375 0.125 0
30 1 0.4375 0.1875 0
31 1 0.4375 0.125 0.0625
32 1 0.375 0.1875 0.0625
33 1 0 0.25 0
34 1 0.0625 0.3125 0
35 1 0.0625 0.25 0.0625
36 1 0 0.3125 0.0625
37 1 0.125 0.25 0
38 1 0.1875 0.3125 0
39 1 0.1875 0.25 0.0625
40 1 0.125 0.3125 0.0625
41 1 0.25 0.25 0
42 1 0.3125 0.3125 0
43 1 0.3125 0.25 0.0625
44 1 0.25 0.3125 0.0625
45 1 0.375 0.25 0
46 1 0.4375 0.3125 0
47 1 0.4375 0.25 0.0625
48 1 0.375 0.3125 0.0625
49 1 0 0.375 0
50 1 0.0625 0.4375 0
51 1 0.0625 0.375 0.0625
52 1 0 0.4375 0.0625
53 1 0.125 0.375 0
54 1 0.1875 0.4375 0
55 1 0.1875 0.375 0.0625
56 1 0.125 0.4375 0.0625
57 1 0.25 0.375 0
58 1 0.3125 0.4375 0
59 1 0.3125 0.375 0.0625
60 1 0.25 0.4375 0.0625
61 1 0.375 0.375 0
62 1 0.4375 0.4375 0
63 1 0.4375 0.375 0.0625
64 1 0.375 0.4375 0.0625
65 1 0 0.5 0
66 1 0.0625 0.5625 0
67 1 0.0625 0.5 0.0625
68 1 0 0.5625 0.0625
69 1 0.125 0.5 0
70 1 0.1875 0.5625 0
71 1 0.1875 0.5 0.0625
72 1 0.125 0.5625 0.0625
73 1 0.25 0.5 0
74 1 0.3125 0.5625 0
75 1 0.3125 0.5 0.0625
76 1 0.25 0.5625 0.0625
77 1 0.375 0.5 0
78 1 0.4375 0.5625 0
79 1 0.4375 0.5 0.0625
80 1 0.375 0.5625 0.0625
81 1 0 0.625 0
82 1 0.0625 0.6875 0
83 1 0.0625 0.625 0.0625
84 1 0 0.6875 0.0625
85 1 0.125 0.625 0
86 1 0.1875 0.6875 0
87 1 0.1875 0.625 0.0625
88 1 0.125 0.6875 0.0625
89 1 0.25 0.625 0
90 1 0.3125 0.6875 0
91 1 0.3125 0.625 0.0625
92 1 0.25 0.6875 0.0625
93 1 0.375 0.625 0
94 1 0.4375 0.6875 0
95 1 0.4375 0.625 0.0625
96 1 0.375 0.6875 0.0625
97 1 0 0.75 0
98 1 0.0625 0.8125 0
99 1 0.0625 0.75 0.0625
100 1 0 0.8125 0.0625
101 1 0.125 0.75 0
102 1 0.1875 0.8125 0
103 1 0.1875 0.75 0.0625
104 1 0.125 0.8125 0.0625
105 1 0.25 0.75 0
106 1 0.3125 0.8125 0
107 1 0.3125 0.75 0.0625
108 1 0.25 0.8125 0.0625
109 1 0.375 0.75 0
110 1 0.4375 0.8125 0
111 1 0.4375 0.75 0.0625
112 1 0.375 0.8125 0.0625
113 1 0 0.875 0
114 1 0.0625 0.9375 0
115 1 0.0625 0.875 0.0625
116 1 0 0.9375 0.0625
117 1 0.125 0.875 0
118 1 0.1875 0.9375 0
119 1 0.1875 0.875 0.0625
120 1 0.125 0.9375 0.0625
121 1 0.25 0.875 0
122 1 0.3125 0.9375 0
123 1 0.3125 0.875 0.0625
124 1 0.25 0.9375 0.0625
125 1 0.375 0.875 0
126 1 0.4375 0.9375 0
127 1 0.4375 0.875 0.0625
128 1 0.375 0.9375 0.0625
129 1 0 0 0.125
130 1 0.0625 0.0625 0.125
131 1 0.0625 0 0.1875
132 1 0 0.0625 0.1875
133 1 0.125 0 0.125
134 1 0.1875 0.0625 0.125
135 1 0.1875 0 0.1875
136 1 0.125 0.0625 0.1875
137 1 0.25 0 0.125
138 1 0.3125 0.0625 0.125
139 1 0.3125 0 0.1875
140 1 0.25 0.0625 0.1875
141 1 0.375 0 0.125
142 1 0.4375 0.0625 0.125
143 1 0.4375 0 0.1875
144 1 0.375 0.0625 0.1875
145 1 0 0.125 0.125
146 1 0.0625 0.1875 0.125
147 1 0.0625 0.125 0.1875
148 1 0 0.1875 0.1875
149 1 0.125 0.125 0.125
150 1 0.1875 0.1875 0.125
151 1 0.1875 0.125 0.1875
152 1 0.125 0.1875 0.1875
153 1 0.25 0.125 0.125
154 1 0.3125 0.1875 0.125
155 1 0.3125 0.125 0.1875
156 1 0.25 0.1875 0.1875
157 1 0.375 0.125 0.125
158 1 0.4375 0.1875 0.125
159 1 0.4375 0.125 0.1875
160 1 0.375 0.1875 0.1875
161 1 0 0.25 0.125
162 1 0.0625 0.3125 0.125
163 1 0.0625 0.25 0.1875
164 1 0 0.3125 0.1875
165 1 0.125 0.25 0.125
166 1 0.1875 0.3125 0.125
167 1 0.1875 0.25 0.1875
168 1 0.125 0.3125 0.1875
169 1 0.25 0.25 0.125
170 1 0.3125 0.3125 0.125
171 1 0.3125 0.25 0.1875
172 1 0.25 0.3125 0.1875
173 1 0.375 0.25 0.125
174 1 0.4375 0.3125 0.125
175 1 0.4375 0.25 0.1875
176 1 0.375 0.3125 0.1875
177 1 0 0.375 0.125
178 1 0.0625 0.4375 0.125
179 1 0.0625 0.375 0.1875
180 1 0 0.4375 0.1875
181 1 0.125 0.375 0.125
182 1 0.1875 0.4375 0.125
183 1 0.1875 0.375 0.1875
184 1 0.125 0.4375 0.1875
185 1 0.25 0.375 0.125
186 1 0.3125 0.4375 0.125
187 1 0.3125 0.375 0.1875
188 1 0.25 0.4375 0.1875
189 1 0.375 0.375 0.125
190 1 0.4375 0.4375 0.125
191 1 0.4375 0.375 0.1875
192 1 0.375 0.4375 0.1875
193 1 0 0.5 0.125
194 1 0.0625 0.5625 0.125
195 1 0.0625 0.5 0.1875
196 1 0 0.5625 0.1875
197 1 0.125 0.5 0.125
198 1 0.1875 0.5625 0.125
199 1 0.1875 0.5 0.1875
200 1 0.125 0.5625 0.1875
201 1 0.25 0.5 0.125
202 1 0.3125 0.5625 0.125
203 1 0.3125 0.5 0.1875
204 1 0.25 0.5625 0.1875
205 1 0.375 0.5 0.125
206 1 0.4375 0.5625 0.125
207 1 0.4375 0.5 0.1875
208 1 0.375 0.5625 0.1875
209 1 0 0.625 0.125
210 1 0.0625 0.6875 0.125
211 1 0.0625 0.625 0.1875
212 1 0 0.6875 0.1875
213 1 0.125 0.625 0.125
214 1 0.1875 0.6875 0.125
215 1 0.1875 0.625 0.1875
216 1 0.125 0.6875 0.1875
217 1 0.25 0.625 0.125
218 1 0.3125 0.6875 0.125
219 1 0.3125 0.625 0.1875
220 1 0.25 0.6875 0.1875
221 1 0.375 0.625 0.125
222 1 0.4375 0.6875 0.125
223 1 0.4375 0.625 0.1875
224 1 0.375 0.6875 0.1875
225 1 0 0.75 0.125
226 1 0.0625 0.8125 0.125
227 1 0.0625 0.75 0.1875
228 1 0 0.8125 0.1875
229 1 0.125 0.75 0.125
230 1 0.1875 0.8125 0.125
231 1 0.1875 0.75 0.1875
232 1 0.125 0.8125 0.1875
233 1 0.25 0.75 0.125
234 1 0.3125 0.8125 0.125
235 1 0.3125 0.75 0.1875
236 1 0.25 0.8125 0.1875
237 1 0.375 0.75 0.125
238 1 0.4375 0.8125 0.125
239 1 0.4375 0.75 0.1875
240 1 0.375 0.8125 0.1875
241 1 0 0.875 0.125
242 1 0.0625 0.9375 0.125
243 1 0.0625 0.875 0.1875
244 1 0 0.9375 0.1875
245 1 0.125 0.875 0.125
246 1 0.1875 0.9375 0.125
247 1 0.1875 0.875 0.1875
248 1 0.125 0.9375 0.1875
249 1 0.25 0.875 0.125
250 1 0.3125 0.9375 0.125
251 1 0.3125 0.875 0.1875
252 1 0.25 0.9375 0.1875
253 1 0.375 0.875 0.125
254 1 0.4375 0.9375 0.125
255 1 0.4375 0.875 0.1875
256 1 0.375 0.9375 0.1875
257 1 0 0 0.25
258 1 0.0625 0.0625 0.25
259 1 0.0625 0 0.3125
260 1 0 0.0625 0.3125
261 1 0.125 0 0.25
262 1 0.1875 0.0625 0.25
263 1 0.1875 0 0.3125
264 1 0.125 0.0625 0.3125
265 1 0.25 0 0.25
266 1 0.3125 0.0625 0.25
267 1 0.3125 0 0.3125
268 1 0.25 0.0625 0.3125
269 1 0.375 0 0.25
270 1 0.4375 0.0625 0.25
271 1 0.4375 0 0.3125
272 1 0.375 0.0625 0.3125
273 1 0 0.125 0.25
274 1 0.0625 0.1875 0.25
275 1 0.0625 0.125 0.3125
276 1 0 0.1875 0.3125
277 1 0.125 0.125 0.25
278 1 0.1875 0.1875 0.25
279 1 0.1875 0.125 0.3125
280 1 0.125 0.1875 0.3125
281 1 0.25 0.125 0.25
282 1 0.3125 0.1875 0.25
283 1 0.3125 0.125 0.3125
284 1 0.25 0.1875 0.3125
285 1 0.375 0.125 0.25
286 1 0.4375 0.1875 0.25
287 1 0.4375 0.125 0.3125
288 1 0.375 0.1875 0.3125
289 1 0 0.25 0.25
290 1 0.0625 0.3125 0.25
291 1 0.0625 0.25 0.3125
292 1 0 0.3125 0.3125
293 1 0.125 0.25 0.25
294 1 0.1875 0.3125 0.25
295 1 0.1875 0.25 0.3125
296 1 0.125 0.3125 0.3125
297 1 0.25 0.25 0.25
298 1 0.3125 0.3125 0.25
299 1 0.3125 0.25 0.3125
300 1 0.25 0.3125 0.3125
301 1 0.375 0.25 0.25
302 1 0.4375 0.3125 0.25
303 1 0.4375 0.25 0.3125
304 1 0.375 0.3125 0.3125
305 1 0 0.375 0.25
306 1 0.0625 0.4375 0.25
307 1 0.0625 0.375 0.3125
308 1 0 0.4375 0.3125
309 1 0.125 0.375 0.25
310 1 0.1875 0.4375 0.25
311 1 0.1875 0.375 0.3125
312 1 0.125 0.4375 0.3125
313 1 0.25 0.375 0.25
314 1 0.3125 0.4375 0.25
315 1 0.3125 0.375 0.3125
316 1 0.25 0.4375 0.3125
317 1 0.375 0.375 0.25
318 1 0.4375 0.4375 0.25
319 1 0.4375 0.375 0.3125
320 1 0.375 0.4375 0.3125
321 1 0 0.5 0.25
322 1 0.0625 0.5625 0.25
323 1 0.0625 0.5 0.3125
324 1 0 0.5625 0.3125
325 1 0.125 0.5 0.25
326 1 0.1875 0.5625 0.25
327 1 0.1875 0.5 0.3125
328 1 0.125 0.5625 0.3125
329 1 0.25 0.5 0.25
330 1 0.3125 0.5625 0.25
331 1 0.3125 0.5 0.3125
332 1 0.25 0.5625 0.3125
333 1 0.375 0.5 0.25
334 1 0.4375 0.5625 0.25
335 1 0.4375 0.5 0.3125
336 1 0.375 0.5625 0.3125
337 1 0 0.625 0.25
338 1 0.0625 0.6875 0.25
339 1 0.0625 0.625 0.3125
340 1 0 0.6875 0.3125
341 1 0.125 0.625 0.25
342 1 0.1875 0.6875 0.25
343 1 0.1875 0.625 0.3125
344 1 0.125 0.6875 0.3125
345 1 0.25 0.625 0.25
346 1 0.3125 0.6875 0.25
347 1 0.3125 0.625 0.3125
348 1 0.25 0.6875 0.3125
349 1 0.375 0.625 0.25
350 1 0.4375 0.6875 0.25
351 1 0.4375 0.625 0.3125
352 1 0.375 0.6875 0.3125
353 1 0 0.75 0.25
354 1 0.0625 0.8125 0.25
355 1 0.0625 0.75 0.3125
356 1 0 0.8125 0.3125
357 1 0.125 0.75 0.25
358 1 0.1875 0.8125 0.25
359 1 0.1875 0.75 0.3125
360 1 0.125 0.8125 0.3125
361 1 0.25 0.75 0.25
362 1 0.3125 0.8125 0.25
363 1 0.3125 0.75 0.3125
364 1 0.25 0.8125 0.3125
365 1 0.375 0.75 0.25
366 1 0.4375 0.8125 0.25
367 1 0.4375 0.75 0.3125
368 1 0.375 0.8125 0.3125
369 1 0 0.875 0.25
370 1 0.0625 0.9375 0.25
371 1 0.0625 0.875 0.3125
372 1 0 0.9375 0.3125
373 1 0.125 0.875 0.25
374 1 0.1875 0.9375 0.25
375 1 0.1875 0.875 0.3125
376 1 0.125 0.9375 0.3125
377 1 0.25 0.875 0.25
378 1 0.3125 0.9375 0.25
379 1 0.3125 0.875 0.3125
380 1 0.25 0.9375 0.3125
381 1 0.375 0.875 0.25
382 1 0.4375 0.9375 0.25
383 1 0.4375 0.875 0.3125
384 1 0.375 0.9375 0.3125
385 1 0 0 0.375
386 1 0.0625 0.0625 0.375
387 1 0.0625 0 0.4375
388 1 0 0.0625 0.4375
389 1 0.125 0 0.375
390 1 0.1875 0.0625 0.375
391 1 0.1875 0 0.4375
392 1 0.125 0.0625 0.4375
393 1 0.25 0 0.375
394 1 0.3125 0.0625 0.375
395 1 0.3125 0 0.4375
396 1 0.25 0.0625 0.4375
397 1 0.375 0 0.375
398 1 0.4375 0.0625 0.375
399 1 0.4375 0 0.4375
400 1 0.375 0.0625 0.4375
401 1 0 0.125 0.375
402 1 0.0625 0.1875 0.375
403 1 0.0625 0.125 0.4375
404 1 0 0.1875 0.4375
405 1 0.125 0.125 0.375
406 1 0.1875 0.1875 0.375
407 1 0.1875 0.125 0.4375
408 1 0.125 0.1875 0.4375
409 1 0.25 0.125 0.375
410 1 0.3125 0.1875 0.375
411 1 0.3125 0.125 0.4375
412 1 0.25 0.1875 0.4375
413 1 0.375 0.125 0.375
414 1 0.4375 0.1875 0.375
415 1 0.4375 0.125 0.4375
416 1 0.375 0.1875 0.4375
417 1 0 0.25 0.375
418 1 0.0625 0.3125 0.375
419 1 0.0625 0.25 0.4375
420 1 0 0.3125 0.4375
421 1 0.125 0.25 0.375
422 1 0.1875 0.3125 0.375
423 1 0.1875 0.25 0.4375
424 1 0.125 0.3125 0.4375
425 1 0.25 0.25 0.375
426 1 0.3125 0.3125 0.375
427 1 0.3125 0.25 0.4375
428 1 0.25 0.3125 0.4375
429 1 0.375 0.25 0.375
430 1 0.4375 0.3125 0.375
431 1 0.4375 0.25 0.4375
432 1 0.375 0.3125 0.4375
433 1 0 0.375 0.375
434 1 0.0625 0.4375 0.375
435 1 0.0625 0.375 0.4375
436 1 0 0.4375 0.4375
437 1 0.125 0.375 0.375
438 1 0.1875 0.4375 0.375
439 1 0.1875 0.375 0.4375
440 1 0.125 0.4375 0.4375
441 1 0.25 0.375 0.375
442 1 0.3125 0.4375 0.375
443 1 0.3125 0.375 0.4375
444 1 0.25 0.4375 0.4375
445 1 0.375 0.375 0.375
446 1 0.4375 0.4375 0.375
447 1 0.4375 0.375 0.4375
448 1 0.375 0.4375 0.4375
449 1 0 0.5 0.375
450 1 0.0625 0.5625 0.375
451 1 0.0625 0.5 0.4375
452 1 0 0.5625 0.4375
453 1 0.125 0.5 0.375
454 1 0.1875 0.5625 0.375
455 1 0.1875 0.5 0.4375
456 1 0.125 0.5625 0.4375
457 1 0.25 0.5 0.375
458 1 0.3125 0.5625 0.375
459 1 0.3125 0.5 0.4375
460 1 0.25 0.5625 0.4375
461 1 0.375 0.5 0.375
462 1 0.4375 0.5625 0.375
463 1 0.4375 0.5 0.4375
464 1 0.375 0.5625 0.4375
465 1 0 0.625 0.375
466 1 0.0625 0.6875 0.375
467 1 0.0625 0.625 0.4375
468 1 0 0.6875 0.4375
469 1 0.125 0.625 0.375
470 1 0.1875 0.6875 0.375
471 1 0.1875 0.625 0.4375
472 1 0.125 0.6875 0.4375
473 1 0.25 0.625 0.375
474 1 0.3125 0.6875 0.375
475 1 0.3125 0.625 0.4375
476 1 0.25 0.6875 0.4375
477 1 0.375 0.625 0.375
478 1 0.4375 0.6875 0.375
479 1 0.4375 0.625 0.4375
480 1 0.375 0.6875 0.4375
481 1 0 0.75 0.375
482 1 0.0625 0.8125 0.375
483 1 0.0625 0.75 0.4375
484 1 0 0.8125 0.4375
485 1 0.125 0.75 0.375
486 1 0.1875 0.8125 0.375
487 1 0.1875 0.75 0.4375
488 1 0.125 0.8125 0.4375
489 1 0.25 0.75 0.375
490 1 0.3125 0.8125 0.375
491 1 0.3125 0.75 0.4375
492 1 0.25 0.8125 0.4375
493 1 0.375 0.75 0.375
494 1 0.4375 0.8125 0.375
495 1 0.4375 0.75 0.4375
496 1 0.375 0.8125 0.4375
497 1 0 0.875 0.375
498 1 0.0625 0.9375 0.375
499 1 0.0625 0.875 0.4375
500 1 0 0.9375 0.4375
501 1 0.125 0.875 0.375
502 1 0.1875 0.9375 0.375
503 1 0.1875 0.875 0.4375
504 1 0.125 0.9375 0.4375
505 1 0.25 0.875 0.375
506 1 0.3125 0.9375 0.375
507 1 0.3125 0.875 0.4375
508 1 0.25 0.9375 0.4375
509 1 0.375 0.875 0.375
510 1 0.4375 0.9375 0.375
511 1 0.4375 0.875 0.4375
512 1 0.375 0.9375 0.4375
513 1 0 0 0.5
514 1 0.0625 0.0625 0.5
515 1 0.0625 0 0.5625
516 1 0 0.0625 0.5625
517 1 0.125 0 0.5
518 1 0.1875 0.0625 0.5
519 1 0.1875 0 0.5625
520 1 0.125 0.0625 0.5625
521 1 0.25 0 0.5
522 1 0.3125 0.0625 0.5
523 1 0.3125 0 0.5625
524 1 0.25 0.0625 0.5625
525 1 0.375 0 0.5
526 1 0.4375 0.0625 0.5
527 1 0.4375 0 0.5625
528 1 0.375 0.0625 0.5625
529 1 0 0.125 0.5
530 1 0.0625 0.1875 0.5
531 1 0.0625 0.125 0.5625
532 1 0 0.1875 0.5625
533 1 0.125 0.125 0.5
534 1 0.1875 0.1875 0.5
535 1 0.1875 0.125 0.5625
536 1 0.125 0.1875 0.5625
537 1 0.25 0.125 0.5
538 1 0.3125 0.1875 0.5
539 1 0.3125 0.125 0.5625
540 1 0.25 0.1875 0.5625
541 1 0.375 0.125 0.5
542 1 0.4375 0.1875 0.5
543 1 0.4375 0.125 0.5625
544 1 0.375 0.1875 0.5625
545 1 0 0.25 0.5
546 1 0.0625 0.3125 0.5
547 1 0.0625 0.25 0.5625
548 1 0 0.3125 0.5625
549 1 0.125 0.25 0.5
550 1 0.1875 0.3125 0.5
551 1 0.1875 0.25 0.5625
552 1 0.125 0.3125 0.5625
553 1 0.25 0.25 0.5
554 1 0.3125 0.3125 0.5
555 1 0.3125 0.25 0.5625
556 1 0.25 0.3125 0.5625
557 1 0.375 0.25 0.5
558 1 0.4375 0.3125 0.5
559 1 0.4375 0.25 0.5625
560 1 0.375 0.3125 0.5625
561 1 0 0.375 0.5
562 1 0.0625 0.4375 0.5
563 1 0.0625 0.375 0.5625
564 1 0 0.4375 0.5625
565 1 0.125 0.375 0.5
566 1 0.1875 0.4375 0.5
567 1 0.1875 0.375 0.5625
568 1 0.125 0.4375 0.5625
569 1 0.25 0.375 0.5
570 1 0.3125 0.4375 0.5
571 1 0.3125 0.375 0.5625
572 1 0.25 0.4375 0.5625
573 1 0.375 0.375 0.5
574 1 0.4375 0.4375 0.5
575 1 0.4375 0.375 0.5625
576 1 0.375 0.4375 0.5625
577 1 0 0.5 0.5
578 1 0.0625 0.5625 0.5
579 1 0.0625 0.5 0.5625
580 1 0 0.5625 0.5625
581 1 0.125 0.5 0.5
582 1 0.1875 0.5625 0.5
583 1 0.1875 0.5 0.5625
584 1 0.125 0.5625 0.5625
585 1 0.25 0.5 0.5
586 1 0.3125 0.5625 0.5
587 1 0.3125 0.5 0.5625
588 1 0.25 0.5625 0.5625
589 1 0.375 0.5 0.5
590 1 0.4375 0.5625 0.5
591 1 0.4375 0.5 0.5625
592 1 0.375 0.5625 0.5625
593 1 0 0.625 0.5
594 1 0.0625 0.6875 0.5
595 1 0.0625 0.625 0.5625
596 1 0 0.6875 0.5625
597 1 0.125 0.625 0.5
598 1 0.1875 0.6875 0.5
599 1 0.1875 0.625 0.5625
600 1 0.125 0.6875 0.5625
601 1 0.25 0.625 0.5
602 1 0.3125 0.6875 0.5
603 1 0.3125 0.625 0.5625
604 1 0.25 0.6875 0.5625
605 1 0.375 0.625 0.5
606 1 0.4375 0.6875 0.5
607 1 0.4375 0.625 0.5625
608 1 0.375 0.6875 0.5625
609 1 0 0.75 0.5
610 1 0.0625 0.8125 0.5
611 1 0.0625 0.75 0.5625
612 1 0 0.8125 0.5625
613 1 0.125 0.75 0.5
614 1 0.1875 0.8125 0.5
615 1 0.1875 0.75 0.5625
616 1 0.125 0.8125 0.5625
617 1 0.25 0.75 0.5
618 1 0.3125 0.8125 0.5
619 1 0.3125 0.75 0.5625
620 1 0.25 0.8125 0.5625
621 1 0.375 0.75 0.5
622 1 0.4375 0.8125 0.5
623 1 0.4375 0.75 0.5625
624 1 0.375 0.8125 0.5625
625 1 0 0.875 0.5
626 1 0.0625 0.9375 0.5
627 1 0.0625 0.875 0.5625
628 1 0 0.9375 0.5625
629 1 0.125 0.875 0.5
630 1 0.1875 0.9375 0.5
631 1 0.1875 0.875 0.5625
632 1 0.125 0.9375 0.5625
633 1 0.25 0.875 0.5
634 1 0.3125 0.9375 0.5
635 1 0.3125 0.875 0.5625
636 1 0.25 0.9375 0.5625
637 1 0.375 0.875 0.5
638 1 0.4375 0.9375 0.5
639 1 0.4375 0.875 0.5625
640 1 0.375 0.9375 0.5625
641 1 0 0 0.625
642 1 0.0625 0.0625 0.625
643 1 0.0625 0 0.6875
644 1 0 0.0625 0.6875
645 1 0.125 0 0.625
646 1 0.1875 0.0625 0.625
647 1 0.1875 0 0.6875
648 1 0.125 0.0625 0.6875
649 1 0.25 0 0.625
650 1 0.3125 0.0625 0.625
651 1 0.3125 0 0.6875
652 1 0.25 0.0625 0.6875
653 1 0.375 0 0.625
654 1 0.4375 0.0625 0.625
655 1 0.4375 0 0.6875
656 1 0.375 0.0625 0.6875
657 1 0 0.125 0.625
658 1 0.0625 0.1875 0.625
659 1 0.0625 0.125 0.6875
660 1 0 0.1875 0.6875
661 1 0.125 0.125 0.625
662 1 0.1875 0.1875 0.625
663 1 0.1875 0.125 0.6875
664 1 0.125 0.1875 0.6875
665 1 0.25 0.125 0.625
666 1 0.3125 0.1875 0.625
667 1 0.3125 0.125 0.6875
668 1 0.25 0.1875 0.6875
669 1 0.375 0.125 0.625
670 1 0.4375 0.1875 0.625
671 1 0.4375 0.125 0.6875
672 1 0.375 0.1875 0.6875
673 1 0 0.25 0.625
674 1 0.0625 0.3125 0.625
675 1 0.0625 0.25 0.6875
676 1 0 0.3125 0.6875
677 1 0.125 0.25 0.625
678 1 0.1875 0.3125 0.625
679 1 0.1875 0.25 0.6875
680 1 0.125 0.3125 0.6875
681 1 0.25 0.25 0.625
682 1 0.3125 0.3125 0.625
683 1 0.3125 0.25 0.6875
684 1 0.25 0.3125 0.6875
685 1 0.375 0.25 0.625
686 1 0.4375 0.3125 0.625
687 1 0.4375 0.25 0.6875
688 1 0.375 0.3125 0.6875
689 1 0 0.375 0.625
690 1 0.0625 0.4375 0.625
691 1 0.0625 0.375 0.6875
692 1 0 0.4375 0.6875
693 1 0.125 0.375 0.625
694 1 0.1875 0.4375 0.625
695 1 0.1875 0.375 0.6875
696 1 0.125 0.4375 0.6875
697 1 0.25 0.375 0.625
698 1 0.3125 0.4375 0.625
699 1 0.3125 0.375 0.6875
700 1 0.25 0.4375 0.6875
701 1 0.375 0.375 0.625
702 1 0.4375 0.4375 0.625
703 1 0.4375 0.375 0.6875
704 1 0.375 0.4375 0.6875
705 1 0 0.5 0.625
706 1 0.0625 0.5625 0.625
707 1 0.0625 0.5 0.6875
708 1 0 0.5625 0.6875
709 1 0.125 0.5 0.625
710 1 0.1875 0.5625 0.625
711 1 0.1875 0.5 0.6875
712 1 0.125 0.5625 0.6875
713 1 0.25 0.5 0.625
714 1 0.3125 0.5625 0.625
715 1 0.3125 0.5 0.6875
716 1 0.25 0.5625 0.6875
717 1 0.375 0.5 0.625
718 1 0.4375 0.5625 0.625
719 1 0.4375 0.5 0.6875
720 1 0.375 0.5625 0.6875
721 1 0 0.625 0.625
722 1 0.0625 0.6875 0.625
723 1 0.0625 0.625 0.6875
724 1 0 0.6875 0.6875
725 1 0.125 0.625 0.625
726 1 0.1875 0.6875 0.625
727 1 0.1875 0.625 0.6875
728 1 0.125 0.6875 0.6875
729 1 0.25 0.625 0.625
730 1 0.3125 0.6875 0.625
731 1 0.3125 0.625 0.6875
732 1 0.25 0.6875 0.6875
733 1 0.375 0.625 0.625
734 1 0.4375 0.6875 0.625
735 1 0.4375 0.625 0.6875
736 1 0.375 0.6875 0.6875
737 1 0 0.75 0.625
738 1 0.0625 0.8125 0.625
739 1 0.0625 0.75 0.6875
740 1 0 0.8125 0.6875
741 1 0.125 0.75 0.625
742 1 0.1875 0.8125 0.625
743 1 0.1875 0.75 0.6875
744 1 0.125 0.8125 0.6875
745 1 0.25 0.75 0.625
746 1 0.3125 0.8125 0.625
747 1 0.3125 0.75 0.6875
748 1 0.25 0.8125 0.6875
749 1 0.375 0.75 0.625
750 1 0.4375 0.8125 0.625
751 1 0.4375 0.75 0.6875
752 1 0.375 0.8125 0.6875
753 1 0 0.875 0.625
754 1 0.0625 0.9375 0.625
755 1 0.0625 0.875 0.6875
756 1 0 0.9375 0.6875
757 1 0.125 0.875 0.625
758 1 0.1875 0.9375 0.625
759 1 0.1875 0.875 0.6875
760 1 0.125 0.9375 0.6875
761 1 0.25 0.875 0.625
762 1 0.3125 0.9375 0.625
763 1 0.3125 0.875 0.6875
764 1 0.25 0.9375 0.6875
765 1 0.375 0.875 0.625
766 1 0.4375 0.9375 0.625
767 1 0.4375 0.875 0.6875
768 1 0.375 0.9375 0.6875
769 1 0 0 0.75
770 1 0.0625 0.0625 0.75
771 1 0.0625 0 0.8125
772 1 0 0.0625 0.8125
773 1 0.125 0 0.75
774 1 0.1875 0.0625 0.75
775 1 0.1875 0 0.8125
776 1 0.125 0.0625 0.8125
777 1 0.25 0 0.75
778 1 0.3125 0.0625 0.75
779 1 0.3125 0 0.8125
780 1 0.25 0.0625 0.8125
781 1 0.375 0 0.75
782 1 0.4375 0.0625 0.75
783 1 0.4375 0 0.8125
784 1 0.375 0.0625 0.8125
785 1 0 0.125 0.75
786 1 0.0625 0.1875 0.75
787 1 0.0625 0.125 0.8125
788 1 0 0.1875 0.8125
789 1 0.125 0.125 0.75
790 1 0.1875 0.1875 0.75
791 1 0.1875 0.125 0.8125
792 1 0.125 0.1875 0.8125
793 1 0.25 0.125 0.75
794 1 0.3125 0.1875 0.75
795 1 0.3125 0.125 0.8125
796 1 0.25 0.1875 0.8125
797 1 0.375 0.125 0.75
798 1 0.4375 0.1875 0.75
799 1 0.4375 0.125 0.8125
800 1 0.375 0.1875 0.8125
801 1 0 0.25 0.75
802 1 0.0625 0.3125 0.75
803 1 0.0625 0.25 0.8125
804 1 0 0.3125 0.8125
805 1 0.125 0.25 0.75
806 1 0.1875 0.3125 0.75
807 1 0.1875 0.25 0.8125
808 1 0.125 0.3125 0.8125
809 1 0.25 0.25 0.75
810 1 0.3125 0.3125 0.75
811 1 0.3125 0.25 0.8125
812 1 0.25 0.3125 0.8125
813 1 0.375 0.25 0.75
814 1 0.4375 0.3125 0.75
815 1 0.4375 0.25 0.8125
816 1 0.375 0.3125 0.8125
817 1 0 0.375 0.75
818 1 0.0625 0.4375 0.75
819 1 0.0625 0.375 0.8125
820 1 0 0.4375 0.8125
821 1 0.125 0.375 0.75
822 1 0.1875 0.4375 0.75
823 1 0.1875 0.375 0.8125
824 1 0.125 0.4375 0.8125
825 1 0.25 0.375 0.75
826 1 0.3125 0.4375 0.75
827 1 0.3125 0.375 0.8125
828 1 0.25 0.4375 0.8125
829 1 0.375 0.375 0.75
830 1 0.4375 0.4375 0.75
831 1 0.4375 0.375 0.8125
832 1 0.375 0.4375 0.8125
833 1 0 0.5 0.75
834 1 0.0625 0.5625 0.75
835 1 0.0625 0.5 0.8125
836 1 0 0.5625 0.8125
837 1 0.125 0.5 0.75
838 1 0.1875 0.5625 0.75
839 1 0.1875 0.5 0.8125
840 1 0.125 0.5625 0.8125
841 1 0.25 0.5 0.75
842 1 0.3125 0.5625 0.75
843 1 0.3125 0.5 0.8125
844 1 0.25 0.5625 0.8125
845 1 0.375 0.5 0.75
846 1 0.4375 0.5625 0.75
847 1 0.4375 0.5 0.8125
848 1 0.375 0.5625 0.8125
849 1 0 0.625 0.75
850 1 0.0625 0.6875 0.75
851 1 0.0625 0.625 0.8125
852 1 0 0.6875 0.8125
853 1 0.125 0.625 0.75
854 1 0.1875 0.6875 0.75
855 1 0.1875 0.625 0.8125
856 1 0.125 0.6875 0.8125
857 1 0.25 0.625 0.75
858 1 0.3125 0.6875 0.75
859 1 0.3125 0.625 0.8125
860 1 0.25 0.6875 0.8125
861 1 0.375 0.625 0.75
862 1 0.4375 0.6875 0.75
863 1 0.4375 0.625 0.8125
864 1 0.375 0.6875 0.8125
865 1 0 0.75 0.75
866 1 0.0625 0.8125 0.75
867 1 0.0625 0.75 0.8125
868 1 0 0.8125 0.8125
869 1 0.125 0.75 0.75
870 1 0.1875 0.8125 0.75
871 1 0.1875 0.75 0.8125
872 1 0.125 0.8125 0.8125
873 1 0.25 0.75 0.75
874 1 0.3125 0.8125 0.75
875 1 0.3125 0.75 0.8125
876 1 0.25 0.8125 0.8125
877 1 0.375 0.75 0.75
878 1 0.4375 0.8125 0.75
879 1 0.4375 0.75 0.8125
880 1 0.375 0.8125 0.8125
881 1 0 0.875 0.75
882 1 0.0625 0.9375 0.75
883 1 0.0625 0.875 0.8125
884 1 0 0.9375 0.8125
885 1 0.125 0.875 0.75
886 1 0.1875 0.9375 0.75
887 1 0.1875 0.875 0.8125
888 1 0.125 0.9375 0.8125
889 1 0.25 0.875 0.75
890 1 0.3125 0.9375 0.75
891 1 0.3125 0.875 0.8125
892 1 0.25 0.9375 0.8125
893 1 0.375 0.875 0.75
894 1 0.4375 0.9375 0.75
895 1 0.4375 0.875 0.8125
896 1 0.375 0.9375 0.8125
897 1 0 0 0.875
898 1 0.0625 0.0625 0.875
899 1 0.0625 0 0.9375
900 1 0 0.0625 0.9375
901 1 0.125 0 0.875
902 1 0.1875 0.0625 0.875
903 1 0.1875 0 0.9375
904 1 0.125 0.0625 0.9375
905 1 0.25 0 0.875
906 1 0.3125 0.0625 0.875
907 1 0.3125 0 0.9375
908 1 0.25 0.0625 0.9375
909 1 0.375 0 0.875
910 1 0.4375 0.0625 0.875
911 1 0.4375 0 0.9375
912 1 0.375 0.0625 0.9375
913 1 0 0.125 0.875
914 1 0.0625 0.1875 0.875
915 1 0.0625 0.125 0.9375
916 1 0 0.1875 0.9375
917 1 0.125 0.125 0.875
918 1 0.1875 0.1875 0.875
919 1 0.1875 0.125 0.9375
920 1 0.125 0.1875 0.9375
921 1 0.25 0.125 0.875
922 1 0.3125 0.1875 0.875
923 1 0.3125 0.125 0.9375
924 1 0.25 0.1875 0.9375
925 1 0.375 0.125 0.875
926 1 0.4375 0.1875 0.875
927 1 0.4375 0.125 0.9375
928 1 0.375 0.1875 0.9375
929 1 0 0.25 0.875
930 1 0.0625 0.3125 0.875
931 1 0.0625 0.25 0.9375
932 1 0 0.3125 0.9375
933 1 0.125 0.25 0.875
934 1 0.1875 0.3125 0.875
935 1 0.1875 0.25 0.9375
936 1 0.125 0.3125 0.9375
937 1 0.25 0.25 0.875
938 1 0.3125 0.3125 0.875
939 1 0.3125 0.25 0.9375
940 1 0.25 0.3125 0.9375
941 1 0.375 0.25 0.875
942 1 0.4375 0.3125 0.875
943 1 0.4375 0.25 0.9375
944 1 0.375 0.3125 0.9375
945 1 0 0.375 0.875
946 1 0.0625 0.4375 0.875
947 1 0.0625 0.375 0.9375
948 1 0 0.4375 0.9375
949 1 0.125 0.375 0.875
950 1 0.1875 0.4375 0.875
951 1 0.1875 0.375 0.9375
952 1 0.125 0.4375 0.9375
953 1 0.25 0.375 0.875
954 1 0.3125 0.4375 0.875
955 1 0.3125 0.375 0.9375
956 1 0.25 0.4375 0.9375
957 1 0.375 0.375 0.875
958 1 0.4375 0.4375 0.875
959 1 0.4375 0.375 0.9375
960 1 0.375 0.4375 0.9375
961 1 0 0.5 0.875
962 1 0.0625 0.5625 0.875
963 1 0.0625 0.5 0.9375
964 1 0 0.5625 0.9375
965 1 0.125 0.5 0.875
966 1 0.1875 0.5625 0.875
967 1 0.1875 0.5 0.9375
968 1 0.125 0.5625 0.9375
969 1 0.25 0.5 0.875
970 1 0.3125 0.5625 0.875
971 1 0.3125 0.5 0.9375
972 1 0.25 0.5625 0.9375
973 1 0.375 0.5 0.875
974 1 0.4375 0.5625 0.875
975 1 0.4375 0.5 0.9375
976 1 0.375 0.5625 0.9375
977 1 0 0.625 0.875
978 1 0.0625 0.6875 0.875
979 1 0.0625 0.625 0.9375
980 1 0 0.6875 0.9375
981 1 0.125 0.625 0.875
982 1 0.1875 0.6875 0.875
983 1 0.1875 0.625 0.9375
984 1 0.125 0.6875 0.9375
985 1 0.25 0.625 0.875
986 1 0.3125 0.6875 0.875
987 1 0.3125 0.625 0.9375
988 1 0.25 0.6875 0.9375
989 1 0.375 0.625 0.875
990 1 0.4375 0.6875 0.875
991 1 0.4375 0.625 0.9375
992 1 0.375 0.6875 0.9375
993 1 0 0.75 0.875
994 1 0.0625 0.8125 0.875
995 1 0.0625 0.75 0.9375
996 1 0 0.8125 0.9375
997 1 0.125 0.75 0.875
998 1 0.1875 0.8125 0.875
999 1 0.1875 0.75 0.9375
1000 1 0.125 0.8125 0.9375
1001 1 0.25 0.75 0.875
1002 1 0.3125 0.8125 0.875
1003 1 0.3125 0.75 0.9375
1004 1 0.25 0.8125 0.9375
1005 1 0.375 0.75 0.875
1006 1 0.4375 0.8125 0.875
1007 1 0.4375 0.75 0.9375
1008 1 0.375 0.8125 0.9375
1009 1 0 0.875 0.875
1010 1 0.0625 0.9375 0.875
1011 1 0.0625 0.875 0.9375
1012 1 0 0.9375 0.9375
1013 1 0.125 0.875 0.875
1014 1 0.1875 0.9375 0.875
1015 1 0.1875 0.875 0.9375
1016 1 0.125 0.9375 0.9375
1017 1 0.25 0.875 0.875
1018 1 0.3125 0.9375 0.875
1019 1 0.3125 0.875 0.9375
1020 1 0.25 0.9375 0.9375
1021 1 0.375 0.875 0.875
1022 1 0.4375 0.9375 0.875
1023 1 0.4375 0.875 0.9375
1024 1 0.375 0.9375 0.9375
1025 1 0.5 0 0
1026 1 0.5625 0.0625 0
1027 1 0.5625 0 0.0625
1028 1 0.5 0.0625 0.0625
1029 1 0.625 0 0
1030 1 0.6875 0.0625 0
1031 1 0.6875 0 0.0625
1032 1 0.625 0.0625 0.0625
1033 1 0.75 0 0
1034 1 0.8125 0.0625 0
1035 1 0.8125 0 0.0625
1036 1 0.75 0.0625 0.0625
1037 1 0.875 0 0
1038 1 0.9375 0.0625 0
1039 1 0.9375 0 0.0625
1040 1 0.875 0.0625 0.0625
1041 1 0.5 0.125 0
1042 1 0.5625 0.1875 0
1043 1 0.5625 0.125 0.0625
1044 1 0.5 0.1875 0.0625
1045 1 0.625 0.125 0
1046 1 0.6875 0.1875 0
1047 1 0.6875 0.125 0.0625
1048 1 0.625 0.1875 0.0625
1049 1 0.75 0.125 0
1050 1 0.8125 0.1875 0
1051 1 0.8125 0.125 0.0625
1052 1 0.75 0.1875 0.0625
1053 1 0.875 0.125 0
1054 1 0.9375 0.1875 0
1055 1 0.9375 0.125 0.0625
1056 1 0.875 0.1875 0.0625
1057 1 0.5 0.25 0
1058 1 0.5625 0.3125 0
1059 1 0.5625 0.25 0.0625
1060 1 0.5 0.3125 0.0625
1061 1 0.625 0.25 0
1062 1 0.6875 0.3125 0
1063 1 0.6875 0.25 0.0625
1064 1 0.625 0.3125 0.0625
1065 1 0.75 0.25 0
1066 1 0.8125 0.3125 0
1067 1 0.8125 0.25 0.0625
1068 1 0.75 0.3125 0.0625
1069 1 0.875 0.25 0
1070 1 0.9375 0.3125 0
1071 1 0.9375 0.25 0.0625
1072 1 0.875 0.3125 0.0625
1073 1 0.5 0.375 0
1074 1 0.5625 0.4375 0
1075 1 0.5625 0.375 0.0625
1076 1 0.5 0.4375 0.0625
1077 1 0.625 0.375 0
1078 1 0.6875 0.4375 0
1079 1 0.6875 0.375 0.0625
1080 1 0.625 0.4375 0.0625
1081 1 0.75 0.375 0
1082 1 0.8125 0.4375 0
1083 1 0.8125 0.375 0.0625
1084 1 0.75 0.4375 0.0625
1085 1 0.875 0.375 0
1086 1 0.9375 0.4375 0
1087 1 0.9375 0.375 0.0625
1088 1 0.875 0.4375 0.0625
1089 1 0.5 0.5 0
1090 1 0.5625 0.5625 0
1091 1 0.5625 0.5 0.0625
1092 1 0.5 0.5625 0.0625
1093 1 0.625 0.5 0
1094 1 0.6875 0.5625 0
1095 1 0.6875 0.5 0.0625
1096 1 0.625 0.5625 0.0625
1097 1 0.75 0.5 0
1098 1 0.8125 0.5625 0
1099 1 0.8125 0.5 0.0625
1100 1 0.75 0.5625 0.0625
1101 1 0.875 0.5 0
1102 1 0.9375 0.5625 0
1103 1 0.9375 0.5 0.0625
1104 1 0.875 0.5625 0.0625
1105 1 0.5 0.625 0
1106 1 0.5625 0.6875 0
1107 1 0.5625 0.625 0.0625
1108 1 0.5 0.6875 0.0625
1109 1 0.625 0.625 0
1110 1 0.6875 0.6875 0
1111 1 0.6875 0.625 0.0625
1112 1 0.625 0.6875 0.0625
1113 1 0.75 0.625 0
1114 1 0.8125 0.6875 0
1115 1 0.8125 0.625 0.0625
1116 1 0.75 0.6875 0.0625
1117 1 0.875 0.625 0
1118 1 0.9375 0.6875 0
1119 1 0.9375 0.625 0.0625
1120 1 0.875 0.6875 0.0625
1121 1 0.5 0.75 0
1122 1 0.5625 0.8125 0
1123 1 0.5625 0.75 0.0625
1124 1 0.5 0.8125 0.0625
1125 1 0.625 0.75 0
1126 1 0.6875 0.8125 0
1127 1 0.6875 0.75 0.0625
1128 1 0.625 0.8125 0.0625
1129 1 0.75 0.75 0
1130 1 0.8125 0.8125 0
1131 1 0.8125 0.75 0.0625
1132 1 0.75 0.8125 0.0625
1133 1 0.875 0.75 0
1134 1 0.9375 0.8125 0
1135 1 0.9375 0.75 0.0625
1136 1 0.875 0.8125 0.0625
1137 1 0.5 0.875 0
1138 1 0.5625 0.9375 0
1139 1 0.5625 0.875 0.0625
1140 1 0.5 0.9375 0.0625
1141 1 0.625 0.875 0
1142 1 0.6875 0.9375 0
1143 1 0.6875 0.875 0.0625
1144 1 0.625 0.9375 0.0625
1145 1 0.75 0.875 0
1146 1 0.8125 0.9375 0
1147 1 0.8125 0.875 0.0625
1148 1 0.75 0.9375 0.0625
1149 1 0.875 0.875 0
1150 1 0.9375 0.9375 0
1151 1 0.9375 0.875 0.0625
1152 1 0.875 0.9375 0.0625
1153 1 0.5 0 0.125
1154 1 0.5625 0.0625 0.125
1155 1 0.5625 0 0.1875
1156 1 0.5 0.0625 0.1875
1157 1 0.625 0 0.125
1158 1 0.6875 0.0625 0.125
1159 1 0.6875 0 0.1875
1160 1 0.625 0.0625 0.1875
1161 1 0.75 0 0.125
1162 1 0.8125 0.0625 0.125
1163 1 0.8125 0 0.1875
1164 1 0.75 0.0625 0.1875
1165 1 0.875 0 0.125
1166 1 0.9375 0.0625 0.125
1167 1 0.9375 0 0.1875
1168 1 0.875 0.0625 0.1875
1169 1 0.5 0.125 0.125
1170 1 0.5625 0.1875 0.125
1171 1 0.5625 0.125 0.1875
1172 1 0.5 0.1875 0.1875
1173 1 0.625 0.125 0.125
1174 1 0.6875 0.1875 0.125
1175 1 0.6875 0.125 0.1875
1176 1 0.625 0.1875 0.1875
1177 1 0.75 0.125 0.125
1178 1 0.8125 0.1875 0.125
1179 1 0.8125 0.125 0.1875
1180 1 0.75 0.1875 0.1875
1181 1 0.875 0.125 0.125
1182 1 0.9375 0.1875 0.125
1183 1 0.9375 0.125 0.1875
1184 1 0.875 0.1875 0.1875
1185 1 0.5 0.25 0.125
1186 1 0.5625 0.3125 0.125
1187 1 0.5625 0.25 0.1875
1188 1 0.5 0.3125 0.1875
1189 1 0.625 0.25 0.125
1190 1 0.6875 0.3125 0.125
1191 1 0.6875 0.25 0.1875
1192 1 0.625 0.3125 0.1875
1193 1 0.75 0.25 0.125
1194 1 0.8125 0.3125 0.125
1195 1 0.8125 0.25 0.1875
1196 1 0.75 0.3125 0.1875
1197 1 0.875 0.25 0.125
1198 1 0.9375 0.3125 0.125
1199 1 0.9375 0.25 0.1875
1200 1 0.875 0.3125 0.1875
1201 1 0.5 0.375 0.125
1202 1 0.5625 0.4375 0.125
1203 1 0.5625 0.375 0.1875
1204 1 0.5 0.4375 0.1875
1205 1 0.625 0.375 0.125
1206 1 0.6875 0.4375 0.125
1207 1 0.6875 0.375 0.1875
1208 1 0.625 0.4375 0.1875
1209 1 0.75 0.375 0.125
1210 1 0.8125 0.4375 0.125
1211 1 0.8125 0.375 0.1875
1212 1 0.75 0.4375 0.1875
1213 1 0.875 0.375 0.125
1214 1 0.9375 0.4375 0.125
1215 1 0.9375 0.375 0.1875
1216 1 0.875 0.4375 0.1875
1217 1 0.5 0.5 0.125
1218 1 0.5625 0.5625 0.125
1219 1 0.5625 0.5 0.1875
1220 1 0.5 0.5625 0.1875
1221 1 0.625 0.5 0.125
1222 1 0.6875 0.5625 0.125
1223 1 0.6875 0.5 0.1875
1224 1 0.625 0.5625 0.1875
1225 1 0.75 0.5 0.125
1226 1 0.8125 0.5625 0.125
1227 1 0.8125 0.5 0.1875
1228 1 0.75 0.5625 0.1875
1229 1 0.875 0.5 0.125
1230 1 0.9375 0.5625 0.125
1231 1 0.9375 0.5 0.1875
1232 1 0.875 0.5625 0.1875
1233 1 0.5 0.625 0.125
1234 1 0.5625 0.6875 0.125
1235 1 0.5625 0.625 0.1875
1236 1 0.5 0.6875 0.1875
1237 1 0.625 0.625 0.125
1238 1 0.6875 0.6875 0.125
1239 1 0.6875 0.625 0.1875
1240 1 0.625 0.6875 0.1875
1241 1 0.75 0.625 0.125
1242 1 0.8125 0.6875 0.125
1243 1 0.8125 0.625 0.1875
1244 1 0.75 0.6875 0.1875
1245 1 0.875 0.625 0.125