2048
Atoms. Timestep: 10000
1 12.551 4.6192 12.2275
1 1.55621 12.4003 4.19396
1 11.7483 3.25432 12.3611
1 4.47096 11.6035 9.61003
1 4.55173 2.8914 2.27145
1 4.07587 12.4579 4.42958
1 12.5919 0.389172 5.63529
1 8.71683 4.10228 4.3162
1 5.24091 9.98797 0.734644
1 4.00471 12.2438 2.93543
1 9.48348 2.70682 1.35163
1 4.31956 0.338686 3.40687
1 1.13469 5.80787 1.64747
1 4.11708 0.805604 0.73975
1 4.52766 12.5069 7.8578
1 2.8093 3.42859 3.66917
1 5.47597 8.69398 0.0686339
1 5.02419 12.3954 1.48165
1 6.52395 11.7199 11.8951
1 5.25407 3.43588 1.91888
1 6.29618 12.6888 2.93966
1 10.3608 11.3248 9.83434
1 9.67244 11.1709 10.5221
1 5.26229 11.4548 12.2094
1 9.13472 1.70214 11.7761
1 1.16241 0.437078 9.49657
1 9.47817 9.28146 3.82244
1 8.30757 10.4594 6.51661
1 8.03509 10.1441 0.690211
1 3.88856 9.66315 12.1043
1 7.12567 0.992417 12.6987
1 0.736734 10.9448 0.422018
1 8.55481 8.17777 2.10744
1 2.60106 0.69504 0.727158
1 12.4605 4.35974 1.2481
1 10.4648 0.267597 0.708843
1 8.00139 1.53407 12.0367
1 1.62435 2.06163 0.905067
1 1.93479 12.4414 2.3549
1 12.5827 5.97945 0.13027
1 8.90107 4.80035 2.1801
1 0.959389 3.41903 1.58627
1 3.62467 0.539224 2.58913
1 5.69189 12.5619 2.1398
1 4.05324 6.86704 7.87531
1 4.95558 2.02734 12.2083
1 3.24916 3.88886 1.11094
1 3.35389 9.35857 1.79279
1 5.99834 9.41288 12.3726
1 6.50721 12.5782 0.270603
1 7.8556 0.709521 3.24103
1 6.79481 3.33341 2.64435
1 9.34136 1.56091 1.19613
1 9.17678 2.53324 10.4137
1 7.96383 0.581261 12.54
1 7.30299 12.3254 9.1829
1 9.9756 6.62739 12.478
1 1.40696 2.62104 11.0786
1 11.8763 1.39014 1.46371
1 10.4382 12.2986 11.4653
1 11.3661 12.1179 11.8376
1 10.8098 5.53445 9.05117
1 0.986502 12.4952 3.05619
1 10.2271 5.31374 10.1229
1 10.8024 2.21749 3.77144
1 1.51466 3.85296 3.38544
1 1.80632 6.07362 2.38955
1 9.16281 3.8226 2.5423
1 9.50713 6.79076 3.56291
1 4.89373 5.57258 0.873663
1 5.25747 4.71634 0.41407
1 2.7574 5.27898 5.4651
1 12.628 3.90329 0.417704
1 4.01451 11.2777 0.54608
1 0.868373 6.96025 0.0411785
1 3.42146 1.54885 0.840821
1 1.74893 4.31845 10.5946
1 7.60542 5.09916 8.14462
1 8.75495 12.4276 1.27631
1 3.26263 7.29206 0.44719
1 5.81392 1.86551 0.78858
1 3.21356 9.07708 2.73595
1 6.38957 1.20911 4.29793
1 5.15401 2.1212 2.00144
1 11.0938 2.83703 0.578783
1 7.27658 12.5476 12.3145
1 8.91292 0.611145 2.8596
1 12.3962 12.5645 0.262205
1 7.20702 0.509192 0.801859
1 9.65561 4.22505 0.360428
1 7.88067 1.85204 3.57897
1 11.1959 4.03685 10.5542
1 0.731959 10.145 11.6724
1 9.65073 5.6522 12.0767
1 11.9889 5.20367 2.79315
1 11.0657 4.9157 10.9631
1 12.4192 2.83693 0.4721
1 9.29557 4.81528 3.10044
1 3.41476 0.771289 11.6964
1 1.1463 6.33876 5.19536
1 12.6004 1.74823 0.593461
1 0.0966885 0.792603 1.74365
1 1.35768 0.380654 2.01838
1 11.7891 8.34402 11.8195
1 3.56116 4.06507 9.3885
1 5.14716 5.14153 11.0553
1 4.08048 2.96627 12.6547
1 2.58275 4.7034 10.9728
1 5.25223 0.572144 12.3328
1 5.16892 5.24808 12.1574
1 4.45845 4.01253 0.437082
1 3.07202 2.39939 3.44663
1 6.52035 2.36042 1.35863
1 6.78 7.86271 0.759821
1 4.95742 5.13402 2.96832
1 5.28032 1.93199 11.2629
1 10.3173 4.36902 10.5996
1 8.37244 5.44236 11.0754
1 10.5077 4.83171 8.07292
1 8.30027 0.578043 0.821984
1 10.2434 5.00685 0.778551
1 5.61927 2.74485 1.17561
1 10.1361 2.17612 0.845148
1 7.30783 4.82002 0.106715
1 4.33848 4.43543 2.94951
1 9.267 9.95536 0.337638
1 10.0455 3.38959 3.082
1 4.87664 5.89078 3.59719
1 10.7188 8.75366 2.0904
1 11.8305 5.22783 12.6146
1 1.57182 9.47884 1.98428
1 12.4113 8.19391 1.70294
1 3.344 1.28557 2.00527
1 1.7617 1.3054 11.5521
1 0.319842 1.83205 2.95849
1 2.74866 10.8936 0.505471
1 2.82129 1.81883 5.32601
1 2.14212 10.5319 3.09426
1 3.44109 9.42075 4.13428
1 2.52317 1.74568 0.359545
1 1.73231 1.3662 1.83402
1 3.33323 6.94827 2.83918
1 8.96123 9.47867 1.17685
1 1.34332 1.28786 4.80857
1 8.16563 9.04816 1.72941
1 5.80228 0.532775 1.04091
1 5.92974 11.6557 1.53419
1 6.70836 4.13553 4.92411
1 5.09886 12.2222 9.24597
1 9.10097 9.50837 12.0729
1 8.68902 2.68793 11.2737
1 2.80232 5.88958 2.91828
1 10.8055 7.66203 4.59365
1 11.0554 9.99458 12.2888
1 9.64737 0.35494 10.1433
1 8.33831 0.365073 1.92016
1 10.4046 1.47871 1.59812
1 10.7047 2.80547 1.53828
1 7.31338 4.86463 4.41173
1 8.13716 2.67512 3.04381
1 10.4822 6.54885 2.96932
1 12.1278 9.07967 5.44407
1 10.3212 8.09153 1.34539
1 9.48757 6.31537 6.6552
1 5.52761 3.31366 3.01448
1 4.54036 4.54785 12.0469
1 12.5861 5.30795 6.21871
1 3.29291 11.6787 2.14882
1 5.63683 2.88491 11.8588
1 2.7654 8.31661 1.18313
1 6.57296 3.62635 1.16966
1 0.621328 7.893 0.291707
1 9.36836 0.516146 1.82197
1 1.75518 3.21148 1.03216
1 5.834 4.2198 3.77192
1 2.53667 5.49613 12.2645
1 5.4133 4.95846 1.53406
1 9.14481 3.05551 3.28954
1 5.50727 4.24501 4.77872
1 4.48404 3.64257 5.76002
1 8.62424 1.29697 1.82168
1 3.98683 12.3475 0.308602
1 11.3618 1.40783 11.4765
1 8.81707 1.94109 2.97662
1 9.39809 4.40253 10.1329
1 12.5176 0.495719 10.7543
1 10.9739 2.89045 2.89999
1 5.08639 4.10871 1.1892
1 11.4296 0.95961 10.4723
1 7.8103 1.28507 11.0892
1 0.428615 0.718623 2.92262
1 11.2481 1.01541 2.2801
1 0.301844 2.41884 1.12606
1 8.84224 5.72778 2.00309
1 12.3069 12.4218 7.48335
1 2.63318 11.0796 3.73752
1 12.1026 7.04415 3.68717
1 1.80248 5.38995 10.6769
1 12.4274 5.09871 0.612847
1 2.88024 5.07295 8.52409
1 6.09921 5.20753 11.7243
1 3.44775 6.44092 4.76262
1 0.641216 4.52694 0.272996
1 2.1715 1.66318 9.49765
1 5.3262 3.41892 3.98582
1 3.39304 4.25856 4.02422
1 2.08568 2.78842 4.02516
1 2.85337 6.1722 1.8649
1 0.901969 2.21468 0.217138
1 7.05361 4.88348 2.12206
1 7.13725 12.2564 10.232
1 4.63975 2.84882 1.12252
1 7.2693 12.4933 4.54919
1 5.20186 4.41986 5.7416
1 6.09526 2.79465 0.0810583
1 0.384673 6.08615 10.3215
1 11.0408 2.96577 10.4512
1 6.08178 2.84151 2.12911
1 8.30412 12.6808 3.78881
1 7.15288 6.10882 9.0739
1 9.85946 11.0617 12.3773
1 9.62904 4.48541 5.79606
1 9.34251 10.3889 11.3776
1 7.518 2.64319 1.95138
1 8.03251 4.66252 3.70029
1 2.75657 6.10285 6.09839
1 3.30508 7.76572 5.18832
1 2.1851 9.17071 11.9258
1 10.3721 7.56964 2.1795
1 5.33371 7.07786 12.5681
1 0.984266 4.6354 2.89914
1 1.83921 6.6201 3.22549
1 11.7412 10.7323 0.0743135
1 6.33483 7.40855 1.67733
1 4.89296 6.61709 0.622704
1 5.24233 7.84349 11.845
1 11.6938 5.97968 2.06637
1 3.22405 8.3032 3.49778
1 12.1364 3.17362 4.46221
1 4.28655 6.97526 3.6012
1 6.95172 1.99615 0.200862
1 7.78724 5.70717 1.99074
1 4.87857 6.23996 6.26371
1 6.16581 8.08074 3.50933
1 7.63968 7.73637 2.40303
1 6.60501 2.51182 11.6691
1 5.04707 12.1882 3.79448
1 8.22297 12.5772 2.7891
1 9.88813 2.24603 3.23746
1 10.0548 3.54386 1.81008
1 1.10365 10.4868 2.66753
1 7.2461 2.39996 2.76865
1 5.08395 2.43451 0.379922
1 12.1107 8.14151 5.68703
1 8.47096 2.18657 2.10135
1 10.2829 8.72966 4.29506
1 12.4225 3.38262 1.34757
1 3.39746 12.6749 6.59135
1 10.9695 5.57074 5.41953
1 11.2971 2.03081 1.90334
1 3.16117 9.0993 12.6643
1 0.00758604 5.79786 3.24008
1 4.69395 1.73987 4.60875
1 12.2985 6.87351 12.5609
1 7.0238 11.5708 4.4127
1 4.73209 11.681 4.75372
1 12.6796 4.49053 2.397
1 0.790033 1.26021 2.23074
1 10.5118 12.5923 1.93316
1 4.21443 3.79287 1.91346
1 11.9221 0.25899 1.57273
1 2.40652 4.54003 6.10647
1 0.224823 1.53963 6.60191
1 4.02815 9.90807 3.35085
1 11.6528 11.8159 4.6379
1 8.96676 11.9924 4.4487
1 8.63366 0.893811 11.9007
1 8.85378 11.6996 12.3044
1 7.0066 0.585542 5.01592
1 10.0095 1.25337 9.40507
1 5.53878 11.2941 2.34979
1 10.6117 12.6646 6.46443
1 9.74614 11.377 2.40827
1 5.38897 10.4715 2.94596
1 3.26634 10.1015 0.0121581
1 2.25593 1.70945 3.41175
1 11.1612 2.35851 4.83117
1 9.65978 12.5303 2.59117
1 10.7153 1.28905 4.41178
1 10.0272 2.87012 12.5183
1 9.97523 4.92704 1.7938
1 0.0504402 1.76002 1.84412
1 12.6335 6.36816 4.24092
1 0.162037 3.33546 12.1291
1 1.45783 1.83289 2.7911
1 1.98618 2.64587 6.14848
1 1.78256 3.63057 4.62605
1 4.00346 2.00098 3.72497
1 8.05372 3.81882 7.0621
1 1.52241 7.71944 12.6188
1 2.59987 1.61543 1.46011
1 2.44587 4.20623 0.00579878
1 0.281876 3.64809 6.85374
1 9.76016 3.63718 9.44896
1 7.76354 0.11244 6.57653
1 3.42061 3.0263 1.98714
1 4.49006 3.67501 4.16867
1 7.72585 2.79704 6.75829
1 1.5179 0.973441 10.3628
1 10.1277 0.776129 4.97807
1 9.39169 0.873154 12.4929
1 9.69124 1.36345 6.16025
1 1.65275 10.8446 0.599249
1 11.8225 5.08739 1.66446
1 12.0912 0.17328 11.7751
1 6.94458 6.48258 7.91352
1 0.711164 3.13504 9.34766
1 0.799399 5.73108 2.63926
1 10.1933 10.7621 4.28368
1 10.2024 1.2042 0.606469
1 7.3159 8.28835 12.5543
1 1.84946 3.82343 2.3416
1 0.799986 9.68594 4.77991
1 9.50449 1.65811 2.20544
1 2.08 2.64893 0.201905
1 4.65824 5.98768 12.4119
1 1.14392 5.3576 3.78591
1 5.91842 4.84244 6.26278
1 12.0271 2.07654 5.36193
1 1.89295 5.0598 3.20668
1 12.0564 7.54841 2.79441
1 0.011258 6.32433 7.85885
1 2.80028 3.61285 5.7482
1 3.8001 1.06085 4.39723
1 7.14737 3.28213 5.17525
1 2.66361 4.98141 2.36127
1 4.25248 4.01455 7.97863
1 1.32441 4.80373 8.5742
1 6.28156 6.18847 5.18425
1 9.70504 9.53266 6.90946
1 6.83088 4.03218 3.75163
1 10.8668 8.13966 2.84616
1 8.90212 3.96069 7.55353
1 3.80262 6.05945 3.47448
1 7.67158 6.44589 6.47133
1 7.01319 1.4456 3.18713
1 9.3693 5.90152 3.27649
1 0.76996 9.41605 3.85685
1 11.9571 2.41976 1.22908
1 2.55675 7.12848 4.67757
1 11.3055 3.51346 1.19803
1 10.7378 0.107763 4.18702
1 9.87083 5.8413 0.383503
1 11.3841 7.71869 12.6808
1 7.3304 3.91935 1.81361
1 3.34227 4.47989 5.22427
1 3.0933 6.88882 5.59602
1 3.50842 7.34169 4.13529
1 3.6905 5.56252 5.72788
1 0.801022 3.47087 0.469044
1 9.45743 9.04206 0.365195
1 11.9856 4.20289 2.91943
1 6.24562 4.78717 4.39493
1 0.775748 6.82907 4.48676
1 4.41314 8.67753 9.80583
1 1.75977 7.74488 3.01857
1 8.39096 3.20535 4.00929
1 7.19806 5.04584 3.4807
1 1.91897 4.64417 11.8501
1 8.69252 5.98154 5.91451
1 9.22175 8.07063 3.83644
1 5.93918 6.20512 1.3905
1 8.71834 3.27893 1.4393
1 7.64076 4.3528 2.78513
1 8.14071 10.6098 1.53264
1 10.2247 3.8562 7.81114
1 8.10494 3.43038 2.32838
1 6.92417 7.48975 3.91446
1 0.00965712 7.54865 4.27882
1 3.4383 7.32743 1.79998
1 10.3799 12.0221 0.72847
1 7.43586 2.16263 1.03616
1 6.36703 2.13561 3.54432
1 4.13372 5.10796 3.65801
1 12.1749 3.28687 2.92576
1 0.636484 1.5477 5.52635
1 2.82993 3.6899 4.64016
1 11.5608 0.681541 4.19354
1 1.56178 4.50384 6.91556
1 0.565977 11.2038 2.22021
1 0.919287 5.38428 6.55232
1 0.198954 3.42483 5.83071
1 0.127087 0.484176 7.69407
1 12.2915 4.35516 6.40668
1 5.99756 7.14246 3.66546
1 2.4972 10.5116 8.66349
1 2.03567 1.92606 4.74849
1 8.26022 11.0667 8.07372
1 3.68534 11.6224 6.20739
1 6.47247 11.5191 2.68055
1 7.1987 7.79364 9.55009
1 7.38165 6.16979 2.8318
1 10.5297 4.15069 8.81135
1 4.70101 11.4388 6.76211
1 7.09102 0.757594 6.31121
1 10.0395 9.78701 4.50136
1 11.4578 8.7168 4.64905
1 5.42082 0.539382 3.41105
1 7.0668 12.3029 2.04136
1 0.184442 9.83437 9.00363
1 0.914485 1.51753 3.63672
1 2.09531 9.74173 4.94265
1 1.4637 11.6017 4.84688
1 10.7755 12.1042 12.5852
1 11.0505 5.07005 2.31633
1 0.153286 11.8408 2.78791
1 0.0961208 5.99259 1.4721
1 12.0209 11.1541 6.81103
1 0.779862 2.50879 10.3386
1 10.0726 7.32581 5.25802
1 10.5413 4.17356 4.21389
1 1.5772 5.30255 0.0161852
1 4.37997 6.43887 4.42027
1 7.87178 3.39269 5.89567
1 1.1156 4.41188 1.91539
1 2.38813 0.94 5.56497
1 6.49244 11.92 3.67425
1 2.68625 4.1871 2.99377
1 8.14594 11.5992 1.1483
1 6.19044 2.87622 5.7098
1 12.6652 3.94598 3.8439
1 5.36598 3.92761 8.12574
1 7.84502 0.845429 5.59878
1 5.32017 0.90615 5.39351
1 4.09503 5.52131 4.56186
1 6.47134 12.4085 6.60651
1 9.44153 11.3845 3.96075
1 7.8519 1.58163 2.5043
1 11.4124 12.4473 2.30218
1 8.35406 3.49427 5.02453
1 10.0982 8.70322 3.19738
1 10.1618 11.372 1.56355
1 8.1052 12.2847 0.14281
1 8.38236 10.8135 4.47325
1 7.89577 2.5757 4.98613
1 10.7222 2.50003 5.75948
1 11.7514 4.07819 0.289329
1 6.45109 3.25061 3.75367
1 7.14743 12.1597 7.19937
1 8.81716 12.0519 6.92325
1 12.098 10.4569 6.07603
1 9.76896 4.35684 4.89436
1 11.7756 8.57176 6.53152
1 4.9304 3.36475 4.98359
1 4.3027 2.49067 7.54097
1 0.0511206 7.38539 6.25516
1 12.0716 2.0074 6.5229
1 3.63521 5.12424 2.61059
1 3.0367 2.69177 4.53856
1 11.8115 7.37103 4.55316
1 0.885213 4.40927 11.9245
1 3.15612 2.72747 5.66638
1 5.44159 3.28601 6.4999
1 3.90824 6.15193 10.8557
1 2.27107 4.32309 4.00745
1 8.91059 11.9533 2.24971
1 5.45941 1.27673 4.3604
1 8.70861 3.05156 6.91814
1 10.6273 4.53401 5.32159
1 2.69783 0.0269248 5.82582
1 11.1922 11.8849 6.31649
1 7.58433 4.39966 5.25949
1 10.0662 5.37459 5.15276
1 4.69764 0.550693 7.12615
1 9.40263 0.521753 9.04748
1 10.5494 6.4471 7.29501
1 9.65859 0.422332 4.08422
1 0.470451 8.77362 5.05203
1 0.666427 12.0643 3.86471
1 8.75778 7.76066 6.68623
1 7.92257 2.5851 0.264645
1 3.79031 3.43082 5.08252
1 7.03824 3.02926 0.331934
1 2.94516 1.81591 11.8256
1 3.0475 4.14264 7.84623
1 9.54778 5.92178 7.53781
1 1.99491 5.27727 0.957905
1 4.30687 6.35882 5.41278
1 5.78163 5.15325 2.3527
1 7.51805 5.79076 7.23889
1 5.92107 4.30732 11.1068
1 0.138678 4.59831 4.62397
1 6.44775 6.32467 10.5292
1 8.92793 7.22177 4.54861
1 8.81389 2.29559 3.94028
1 3.97341 7.03759 10.0807
1 2.88568 8.17449 0.168863
1 9.12326 8.98433 7.64623
1 8.86119 2.63701 5.03412
1 7.73632 6.10295 10.2015
1 4.39387 4.55697 4.65592
1 9.38686 8.75357 1.97049
1 7.69813 0.184307 10.7669
1 9.70737 1.26029 3.07049
1 9.70427 6.14913 2.34827
1 9.57393 8.37519 5.63388
1 2.16648 5.39633 6.65531
1 9.90949 7.41035 7.09331
1 4.27437 8.00194 4.11371
1 6.48443 10.468 2.05121
1 9.38175 1.4932 5.29627
1 6.90472 6.48183 1.18071
1 12.3311 9.55545 6.49683
1 12.2602 12.0131 6.61356
1 9.67893 4.40633 11.79
1 10.7316 1.69779 8.88907
1 4.78247 11.8721 5.91368
1 10.2952 6.07252 3.71979
1 5.26201 12.5181 4.99639
1 11.406 2.78837 6.54125
1 0.167343 4.56712 5.67437
1 5.60896 0.49107 7.73758
1 1.32149 0.490515 5.45496
1 7.31279 3.0025 4.17908
1 6.46235 4.50892 2.91323
1 6.07594 1.81436 6.38022
1 9.12893 12.3075 3.485
1 3.44768 1.61702 8.98402
1 10.8083 9.1351 5.42241
1 3.89926 11.5637 5.03841
1 6.53729 1.47566 5.38092
1 6.97012 2.38604 5.61246
1 9.70273 12.2864 1.61328
1 0.516472 9.80217 6.9374
1 10.5434 10.3513 5.2307
1 5.78202 3.77416 9.20605
1 1.81061 5.37364 4.76178
1 8.33462 12.1089 7.87121
1 11.6412 0.188807 5.0508
1 0.139543 1.45994 4.37528
1 3.2488 10.6921 6.3781
1 9.66541 5.65197 6.0802
1 1.88549 11.4826 5.92003
1 0.468696 5.14164 10.3389
1 0.138622 1.91078 7.59531
1 9.32639 8.89845 4.81788
1 12.0399 12.6337 8.4229
1 0.206056 0.238885 9.05211
1 7.49225 3.44591 3.29352
1 12.0073 2.22117 3.72133
1 11.4022 8.03357 2.05832
1 12.6406 12.338 1.22291
1 9.32301 3.33819 4.42351
1 0.258265 2.96571 3.6918
1 7.14352 4.46763 6.52513
1 4.5111 1.39996 5.58419
1 4.60097 1.42864 7.63541
1 5.16284 2.37047 7.92371
1 8.20965 12.2861 8.96459
1 9.53666 3.97644 8.55863
1 3.45478 2.18621 8.13844
1 10.2462 0.794031 2.27484
1 11.5568 4.01795 5.76249
1 5.04614 1.25783 6.52278
1 5.91759 0.892276 2.58085
1 0.738172 4.23637 10.4341
1 8.11959 0.70833 4.54356
1 10.6623 10.1551 7.49486
1 11.1963 9.95202 0.905986
1 10.9434 8.75028 8.12648
1 9.52554 11.3741 5.01061
1 8.6732 0.297304 6.28276
1 9.6634 12.6916 6.72057
1 10.085 4.98254 3.89217
1 8.91869 11.1632 6.02552
1 5.31099 11.1924 9.36083
1 9.13618 0.451471 4.87186
1 8.63848 4.45382 5.33094
1 0.204986 3.48014 10.1128
1 0.320035 2.35452 5.78283
1 1.74951 0.77506 7.78872
1 2.98921 1.9742 10.7858
1 4.44971 5.68755 8.03897
1 1.34527 6.55009 10.1786
1 10.3973 3.65529 5.677
1 7.33881 8.13005 6.90385
1 6.46001 3.84763 8.28909
1 7.0147 2.03596 8.60305
1 0.0543188 4.8049 3.34859
1 8.5789 3.36195 8.52194
1 3.00692 5.21911 4.5002
1 5.12704 4.27373 6.72765
1 11.8961 7.97825 8.93771
1 4.05407 12.1033 1.41135
1 12.149 6.21454 9.03265
1 5.1607 5.06159 9.99326
1 4.56487 2.1045 6.35711
1 10.1503 2.21885 10.8433
1 11.2242 11.8632 7.44723
1 8.51549 6.09729 7.52726
1 6.68467 0.443606 3.76026
1 7.93095 5.35908 5.50332
1 10.3068 12.2953 9.69689
1 11.2551 4.87924 7.00292
1 0.0548994 11.4922 5.92444
1 10.8003 12.5942 5.39052
1 10.291 2.97963 4.90351
1 2.42986 5.84029 3.98186
1 7.83199 2.10332 5.94072
1 12.5787 7.27331 7.22808
1 11.555 5.99095 7.07536
1 11.3196 6.97774 8.00101
1 1.3966 11.6149 2.89965
1 4.66055 4.75903 7.50809
1 0.937335 8.04764 10.8981
1 11.7517 11.0066 5.37373
1 2.24724 4.29491 5.1528
1 4.70138 6.9443 10.7678
1 4.21176 6.16667 8.82077
1 9.49021 4.73759 7.90235
1 0.295371 6.19738 6.71282
1 8.26966 4.92498 7.44931
1 6.19313 7.27652 8.97001
1 4.35073 2.9746 8.35978
1 3.22544 3.18459 11.2621
1 9.69847 2.45269 5.7123
1 7.81283 6.35034 11.1811
1 8.47763 1.66965 7.80689
1 10.3881 3.13094 6.51151
1 7.69152 7.44099 6.32922
1 5.82028 2.13636 8.66695
1 11.7957 5.31963 9.14441
1 9.36863 6.72035 5.82688
1 11.567 7.12681 9.40449
1 11.2838 6.41093 8.76767
1 8.02361 5.14057 9.00747
1 9.13851 6.40864 8.50078
1 7.04294 3.51058 7.07969
1 9.62726 0.159429 5.75293
1 10.9754 5.34926 4.07963
1 4.16761 0.676911 9.69668
1 11.1754 1.86016 7.35052
1 0.826236 1.10592 7.41208
1 10.7832 11.5422 8.92456
1 6.77603 3.69191 6.04459
1 0.11963 5.10662 1.72164
1 5.02902 1.71467 10.2346
1 8.62803 1.34162 5.9931
1 5.59406 1.54176 7.52779
1 7.38225 8.78553 7.86217
1 5.41699 2.40259 6.94257
1 11.3815 2.38023 9.64939
1 6.70474 10.4198 10.1441
1 5.37249 1.87692 5.58509
1 5.827 3.04013 8.59361
1 2.9403 3.27691 9.42046
1 6.66466 11.6086 5.37875
1 1.77514 1.53168 7.09091
1 4.77482 9.73383 4.37253
1 10.2823 1.77896 5.23093
1 3.57357 2.17034 7.05737
1 11.2361 1.07132 9.51423
1 8.95704 12.0647 5.57294
1 9.6064 2.66757 11.575
1 12.6043 11.686 12.2036
1 10.4409 0.833667 5.9245
1 11.3941 0.0475455 7.09087
1 0.846854 4.06306 9.36563
1 0.350684 12.1513 8.13221
1 3.92374 1.27289 6.77916
1 3.74037 6.40409 6.30934
1 1.58853 1.13847 8.76658
1 12.1872 4.39446 7.36849
1 1.13748 0.164594 7.22367
1 0.45264 2.6386 8.58553
1 11.3766 4.92938 0.76778
1 5.10762 0.230737 6.26896
1 2.38837 2.99447 2.76578
1 1.58845 4.8765 5.86609
1 11.5826 4.66426 4.96962
1 6.82061 1.44109 11.8345
1 7.69558 1.34921 9.95812
1 1.28198 4.51873 4.20764
1 11.1126 4.66913 3.25188
1 3.55105 3.61114 2.80715
1 4.13119 2.49137 5.43228
1 11.2027 1.70455 5.67546
1 11.2569 2.50493 8.31111
1 7.37527 11.8006 8.02898
1 6.71703 2.81708 9.13231
1 11.4559 12.6982 11.0267
1 8.08304 0.748057 9.09771
1 10.7988 6.22633 9.75802
1 10.1025 11.8869 5.7553
1 8.92888 1.17676 7.0087
1 12.3764 1.51426 10.384
1 8.18771 5.17289 9.94511
1 11.1136 4.1277 7.5643
1 0.141621 2.36476 9.67328
1 10.6986 0.0658071 2.96275
1 10.2168 0.798089 8.49896
1 2.71367 0.419367 7.91921
1 3.57473 12.4696 8.27338
1 2.37434 3.61213 7.30009
1 12.399 8.32493 4.78632
1 0.869284 6.98348 5.94686
1 11.6132 5.17697 6.05894
1 1.19675 0.0236363 8.32024
1 3.36224 7.01082 7.04206
1 1.18612 6.6562 9.25906
1 11.5607 2.41387 11.7895
1 0.603502 4.25284 8.16081
1 2.9625 6.56329 3.64287
1 0.397266 4.61647 7.06323
1 2.23503 0.025624 12.6131
1 3.62812 4.75717 12.4909
1 11.0907 0.862065 5.16763
1 10.3612 2.20859 2.36578
1 6.58786 10.2752 8.43328
1 5.72688 4.83108 7.3139
1 8.47308 9.4762 6.3769
1 2.26547 5.90112 7.86629
1 6.15095 4.26502 10.0801
1 4.20497 3.90654 6.96343
1 9.09999 5.29563 5.18932
1 8.80487 9.79674 5.34317
1 4.97413 4.78007 8.38017
1 9.39665 10.7133 9.62739
1 11.4144 10.9416 7.92263
1 0.761393 1.51541 1.18486
1 10.2378 6.56377 8.38749
1 11.7241 3.51578 8.12419
1 8.57931 7.42494 3.28323
1 9.41514 3.51182 5.41914
1 0.309182 2.6801 6.65287
1 10.4441 3.08432 8.50661
1 8.55722 8.70233 3.08991
1 5.12737 11.8001 10.3357
1 0.115434 6.2831 5.60479
1 7.52414 9.10189 10.8967
1 4.69026 8.83009 7.43924
1 0.605144 5.214 8.07007
1 1.6192 1.49644 5.98129
1 11.0082 11.4726 10.6585
1 4.28853 5.35006 9.64647
1 9.14017 5.11534 9.11399
1 3.55466 3.48198 8.51711
1 0.369994 8.72321 10.403
1 7.57252 4.03251 8.29046
1 10.191 5.44464 7.0438
1 6.34044 1.02188 7.04169
1 6.27773 5.70127 8.76833
1 4.78062 6.18623 11.3409
1 6.95563 4.85385 8.85676
1 7.07725 7.32545 10.4271
1 7.86443 7.9099 5.39491
1 6.25564 7.58882 9.9742
1 12.4301 3.47426 9.0352
1 5.85925 1.00849 11.6075
1 8.42575 2.26648 9.57953
1 7.28965 2.325 9.76212
1 8.16862 5.33076 2.79884
1 10.3415 7.50167 12.2852
1 10.0434 3.18165 10.342
1 11.3676 7.06223 6.85671
1 9.31433 7.12028 10.7029
1 5.91626 1.39552 3.44034
1 7.60996 2.17115 7.51147
1 2.61238 1.26573 8.51977
1 0.23828 11.1659 6.86432
1 11.4828 3.27343 9.06656
1 3.28447 3.79975 10.4433
1 1.78292 3.79612 9.18577
1 2.36702 4.84597 7.5879
1 12.1645 2.51645 7.78756
1 0.937761 0.113938 1.141
1 12.617 4.43936 9.87381
1 4.76434 4.40235 9.29529
1 3.84024 12.278 9.38937
1 1.06724 10.9273 7.53814
1 11.1274 10.8565 4.53248
1 0.901282 4.21437 6.20978
1 4.8722 1.7435 1.17917
1 6.67258 0.542529 10.778
1 3.35842 0.639549 9.07651
1 4.9454 1.34618 0.288132
1 6.49993 0.463535 9.64874
1 3.40148 3.34225 7.48404
1 6.68061 0.203101 8.66666
1 9.50432 1.38532 10.7447
1 5.41134 12.2262 8.27919
1 4.55047 11.8015 11.1858
1 10.0303 12.5114 8.75329
1 10.4913 0.473938 9.3905
1 10.3573 0.177955 7.8404
1 1.16408 11.4387 6.56625
1 0.784601 12.1832 9.39176
1 0.919406 1.77296 8.29799
1 11.11 11.6858 1.78961
1 11.9871 10.0194 5.22944
1 1.95828 2.2882 12.0063
1 0.889997 6.81533 7.32393
1 5.03209 6.03202 10.3438
1 1.94963 2.79697 9.73516
1 2.16648 11.3277 8.27944
1 0.365591 6.74405 0.873769
1 4.62664 2.94109 11.6966
1 1.9341 12.2855 7.86119
1 0.492577 6.07748 8.90907
1 0.186354 2.69761 11.2297
1 1.33835 3.4602 10.1925
1 3.17076 12.5379 11.8808
1 12.0788 1.28869 5.9614
1 1.83022 1.86044 10.5959
1 0.794933 1.70765 10.9249
1 8.14816 2.89914 7.72704
1 1.32213 3.72282 7.48317
1 0.929645 12.0277 5.55007
1 0.946699 2.71174 7.52577
1 1.08371 2.27789 1.80533
1 7.82288 11.7123 9.91073
1 7.45662 0.77726 7.27761
1 7.41338 0.567004 11.6489
1 9.89451 12.1758 10.6562
1 7.47289 11.1152 3.56338
1 0.943181 2.834 12.0567
1 8.66858 2.11766 6.82821
1 10.1822 10.1809 9.78594
1 4.19259 3.32343 9.56297
1 1.87981 12.3558 5.33866
1 8.49409 8.4963 12.581
1 11.7906 5.96835 0.816057
1 11.9687 5.75378 8.04696
1 1.38169 0.169966 0.333143
1 0.487835 1.04952 10.0557
1 10.2066 0.229142 12.325
1 12.3784 0.880889 8.58194
1 2.38837 7.20145 0.0878362
1 11.1273 5.7587 3.13911
1 10.621 5.13593 6.16948
1 3.50417 1.43877 12.6217
1 4.28686 4.35047 10.2369
1 12.0476 2.26906 2.4901
1 1.7273 8.22979 11.8027
1 5.3207 2.34097 3.9795
1 3.26504 2.3835 0.214411
1 3.69392 2.55975 9.03289
1 3.96917 3.60619 11.8701
1 8.52552 1.8393 10.6974
1 7.95444 1.77277 9.0004
1 7.19406 3.12737 11.2519
1 5.72432 1.15225 9.46387
1 6.49273 1.82543 9.47741
1 9.98927 1.01695 7.07792
1 8.87096 1.37878 8.85094
1 11.6061 5.96909 11.2223
1 12.0698 9.90863 12.5121
1 9.29649 6.95144 7.66922
1 1.1984 0.301081 11.0256
1 0.710649 5.41652 12.3009
1 1.59626 0.966452 0.900548
1 12.336 4.33799 8.36509
1 2.46168 1.02661 12.3686
1 3.53728 0.279322 1.27372
1 11.8545 5.03881 11.5529
1 1.02352 5.62837 9.62899
1 9.98437 5.09558 11.1242
1 9.52543 4.16848 1.3335
1 11.7527 4.40725 4.06702
1 1.4253 0.568948 12.1792
1 3.06928 6.07615 7.10581
1 10.1588 8.34312 8.84792
1 12.093 4.25312 10.7132
1 5.82933 6.2127 7.29051
1 3.73144 3.07116 0.928809
1 3.47201 6.81257 8.94602
1 4.90558 3.434 8.95302
1 4.07301 2.19323 10.8735
1 7.11945 1.1327 9.06032
1 10.2728 2.62702 9.40712
1 4.97433 2.83641 5.76417
1 1.50378 4.2599 0.827209
1 8.56944 0.472242 8.3137
1 6.29477 2.38683 7.6971
1 10.5079 6.06199 10.7349
1 6.77187 3.96353 9.27134
1 3.24002 5.41573 11.4527
1 9.05896 4.77837 10.9638
1 9.08015 3.49085 12.5524
1 0.609255 1.41177 9.21325
1 0.47212 0.688486 11.5302
1 9.69757 8.06764 11.216
1 5.3512 0.0478402 11.4015
1 12.2214 1.097 5.03328
1 8.9256 0.0446332 12.5445
1 12.1826 7.18259 11.4587
1 12.6163 10.7117 12.1656
1 11.496 6.32723 3.89405
1 12.0941 7.07607 1.61411
1 3.99291 11.0094 1.49494
1 1.23606 9.3487 12.0689
1 6.23811 1.83365 11.0937
1 7.28959 12.2539 11.4079
1 3.85214 11.5923 7.48626
1 11.9054 11.8829 11.0583
1 5.89022 1.10881 10.5454
1 8.68289 0.615975 10.7962
1 4.23069 1.21916 1.74643
1 1.92981 12.6599 1.2847
1 5.7086 12.2749 0.783307
1 8.087 8.93298 11.7759
1 5.77349 11.4173 11.2224
1 6.98221 1.69838 6.6708
1 7.9832 7.36452 11.0515
1 6.96833 10.4833 5.64751
1 8.80334 8.40771 1.05613
1 9.76992 11.6117 9.13159
1 9.37653 11.5982 7.71864
1 6.49771 11.1933 8.36869
1 5.48069 4.21753 12.2082
1 8.23062 11.89 6.15802
1 11.2023 10.3132 11.2414
1 2.17823 0.270274 11.6106
1 9.36615 12.3381 11.5927
1 11.8529 4.3605 9.26986
1 9.96895 10.0425 12.1213
1 3.16047 11.6918 12.6141
1 12.1263 2.62473 10.2917
1 5.93859 11.1843 10.111
1 4.31038 1.41854 11.609
1 2.0652 0.15769 3.49177
1 11.2863 3.7041 4.65981
1 7.79413 8.17735 10.4033
1 3.80715 2.44317 11.9048
1 8.39081 4.11337 10.3863
1 11.6148 8.75158 2.84161
1 2.8391 2.25058 2.4212
1 4.06447 10.8024 9.95815
1 2.29724 4.455 1.49298
1 4.28616 5.25144 10.5716
1 2.78398 6.10275 9.02146
1 2.92693 2.97271 12.1686
1 5.60615 0.127144 10.4396
1 4.20977 3.3681 10.764
1 4.94055 10.3328 9.52071
1 7.11542 11.0494 12.4614
1 8.28467 10.6224 11.2461
1 6.30528 12.2549 11.0221
1 12.5599 2.35104 12.2144
1 10.5195 1.78398 9.99962
1 5.98797 10.7551 1.12508
1 10.1762 8.59007 7.44066
1 10.2731 1.57967 11.6195
1 10.6821 0.163038 10.4785
1 11.8081 4.01308 11.5965
1 8.85116 11.4396 11.2183
1 0.290801 12.3221 11.48
1 10.5208 1.06105 10.8164
1 3.57507 7.84417 7.24325
1 0.694143 0.85233 8.37412
1 7.14279 11.7951 0.3273
1 10.5317 2.58904 11.7387
1 2.71555 3.34114 0.47257
1 1.5001 3.78839 11.3695
1 11.2998 0.620198 8.65756
1 10.8556 4.31593 1.60328
1 10.5644 3.74709 12.3129
1 1.41449 10.8961 11.3429
1 1.61858 6.7787 12.202
1 7.38036 1.30913 4.22234
1 4.9243 0.180689 0.58708
1 4.60636 3.53271 3.16607
1 4.98308 11.2279 1.3898
1 0.855376 8.41174 12.121
1 5.97688 1.86635 12.3142
1 8.55215 2.17206 1.0671
1 4.51992 11.6659 2.177
1 12.0313 1.58163 9.29742
1 8.53875 0.345921 9.76163
1 9.43376 2.03256 9.57128
1 6.70003 11.4414 10.7207
1 8.05175 3.49772 11.1904
1 7.33133 2.10173 10.9979
1 6.75811 3.42417 12.0508
1 8.49617 9.65477 11.2893
1 12.195 1.08121 12.2583
1 12.1199 3.22184 11.1339
1 9.88918 1.84516 12.5651
1 11.9613 12.4032 10.2664
1 10.9636 6.25887 6.1292
1 11.0484 1.81476 0.921198
1 7.61577 5.7646 4.00767
1 7.64648 3.33714 1.17276
1 6.8146 3.9813 0.206997
1 2.06483 2.46481 1.81424
1 9.92542 5.9105 1.32708
1 10.6691 4.12123 0.498101
1 3.84825 7.12746 11.1677
1 2.24586 7.95359 10.8579
1 4.30718 0.142228 11.2823
1 2.45421 3.2913 8.24701
1 2.40562 3.72774 11.8376
1 1.45796 4.75324 9.55363
1 2.98158 2.28878 9.72852
1 5.47811 8.11932 1.67614
1 6.64351 0.539974 1.67235
1 9.17374 5.13957 6.99895
1 3.51485 5.92535 9.92181
1 7.95706 11.7488 4.51738
1 10.9456 5.22435 11.8827
1 10.7843 6.18754 4.6565
1 7.56876 0.801332 1.77182
1 9.50361 1.88392 7.63336
1 12.6408 3.37519 7.88684
1 8.42616 3.9262 3.15106
1 11.1456 3.25112 11.4005
1 2.53093 2.34228 8.78104
1 11.2457 4.46839 12.3186
1 12.3468 10.0181 11.3398
1 7.21628 6.28669 12.0361
1 2.46726 0.762328 2.76789
1 0.580007 1.23695 12.6975
1 0.404794 3.75374 11.2154
1 11.2996 5.10651 9.98919
1 9.69471 8.05829 0.548845
1 0.876211 6.29346 3.6165
1 0.124502 6.74755 9.5667
1 8.74494 4.27227 9.45775
1 12.1454 7.39354 0.711215
1 10.1531 4.29625 2.64911
1 0.379425 7.7144 2.53258
1 10.3781 7.29704 0.61374
1 7.50196 2.42023 12.0514
1 3.88165 2.1974 1.60913
1 6.24212 3.8307 2.0672
1 12.5251 6.29435 11.0739
1 7.03907 1.59756 2.00314
1 5.64377 10.1761 3.99607
1 4.44621 7.08503 11.9374
1 2.14789 11.3701 1.37088
1 4.87914 3.33578 12.6107
1 7.39788 7.43917 1.48929
1 4.6508 8.00671 2.19744
1 3.90253 8.01696 0.817216
1 6.80349 6.61262 3.54822
1 5.15034 7.98003 10.0718
1 8.76873 4.07248 11.7224
1 4.60373 9.23346 0.399468
1 6.34769 5.8048 4.0096
1 7.75189 6.87038 3.39017
1 8.02041 6.95681 5.55318
1 5.69919 5.79771 0.165531
1 11.2194 7.86582 11.1844
1 6.66715 12.0021 1.13138
1 10.4517 10.3566 2.23807
1 11.5303 12.3836 0.859429
1 0.634359 6.42394 11.7083
1 12.4773 8.28659 0.619924
1 9.0787 6.66525 1.55005
1 6.48804 7.88184 11.2698
1 2.61756 7.50014 3.55427
1 1.47431 12.2419 12.1299
1 0.907845 11.1753 12.1633
1 1.96297 6.2323 1.27476
1 4.62558 7.98431 9.16168
1 6.28779 8.86318 2.83574
1 5.4205 2.31359 9.42867
1 5.54052 6.85643 10.3061
1 5.62698 5.95278 11.0716
1 4.98382 12.4561 2.92985
1 2.69918 9.32499 0.772996
1 0.33933 7.44566 1.48953
1 7.00338 8.70432 3.61125
1 5.893 9.64051 2.36956
1 7.63793 8.87195 2.60132
1 4.83339 11.8273 0.50064
1 7.70283 8.83287 0.671351
1 9.91437 6.54175 10.1863
1 11.0888 10.5613 9.95224
1 4.52914 7.70323 0.107406
1 8.01385 9.26237 3.93263
1 9.16599 3.60345 10.869
1 8.38677 7.17714 2.00989
1 4.61686 8.72261 12.1108
1 9.79326 9.14851 10.0078
1 1.26077 7.27432 0.879124
1 8.71042 7.43453 1.06788
1 11.0449 9.0468 0.697201
1 0.49371 0.121945 12.3783
1 9.79742 12.0303 12.5083
1 1.66744 8.34814 3.88959
1 0.450328 11.513 1.24145
1 12.1679 0.618215 9.55917
1 5.07866 11.236 7.60557
1 11.1803 1.71886 3.07438
1 4.01158 11.7497 12.1181
1 4.13186 8.72003 2.97323
1 4.78334 10.1144 12.4893
1 6.68443 5.83222 1.88201
1 3.83951 10.8564 12.2583
1 5.52745 7.70249 10.8821
1 1.04952 8.23779 1.10113
1 4.34516 7.30241 1.43061
1 6.16622 11.0247 3.65036
1 5.46634 10.3128 1.7964
1 7.21172 10.8681 11.4574
1 5.96484 7.81875 0.256176
1 9.67815 11.358 6.70773
1 10.2424 12.045 7.18149
1 8.31645 4.56668 12.4902
1 7.1618 9.27537 12.1527
1 7.80733 10.1708 12.1403
1 7.50456 9.97768 11.2105
1 5.67866 7.03493 0.914649
1 12.6931 11.5956 10.1648
1 9.19044 12.2873 9.51707
1 8.75621 7.96965 10.6958
1 2.38144 11.8136 4.39506
1 10.3062 10.9158 3.21532
1 10.7959 6.38766 2.05582
1 12.555 7.97405 9.86964
1 1.43051 11.909 0.926607
1 11.5468 8.95813 1.49298
1 1.6173 8.97951 11.1886
1 12.4491 9.14026 1.92635
1 3.26102 9.56688 6.15416
1 0.695785 10.4709 6.22435
1 2.66324 3.39553 1.66918
1 4.539 9.72356 10.1717
1 4.0811 11.5423 3.94251
1 11.0017 3.19215 7.47104
1 5.44241 9.54182 10.5859
1 3.87663 11.022 2.75765
1 6.19579 11.4966 0.377591
1 7.46055 6.18183 0.322303
1 4.10267 10.6797 6.89506
1 1.86692 1.00962 4.0438
1 3.31984 11.6082 3.26604
1 4.11296 4.54299 11.2044
1 8.29348 11.7041 3.56992
1 6.03339 10.5515 12.6511
1 7.88659 11.6543 12.0754
1 8.90191 10.7859 0.806323
1 3.92975 7.76092 2.92769
1 7.26712 10.7499 7.8845
1 1.8626 7.05025 7.78189
1 12.4145 12.6215 3.31566
1 0.980105 8.55502 3.15562
1 0.955503 11.9785 7.43102
1 2.75649 6.93668 10.7073
1 5.0504 8.21433 0.799368
1 7.16534 5.2391 1.05441
1 7.35516 7.10641 0.517715
1 3.72728 8.36798 12.5548