2048
Atoms. Timestep: 10000
1 13.1335 0.081219 13.1057
1 0.797765 0.892607 0.0759863
1 0.840116 0.10204 0.755566
1 13.1027 0.778353 0.843155
1 1.64266 0.144312 0.0555327
1 2.46542 0.8137 13.0795
1 2.4602 0.0842672 0.828256
1 1.72191 0.829084 0.906601
1 3.24605 0.0552525 13.0704
1 4.15436 0.827798 0.116223
1 4.04437 0.0746032 0.832912
1 3.28249 0.851859 0.783067
1 4.97965 0.0900574 0.0592435
1 5.92254 0.819862 13.0685
1 5.86006 13.0723 0.845811
1 4.91807 0.812391 1.04269
1 13.0736 1.66418 13.11
1 0.762437 2.42621 13.1117
1 0.793337 1.52274 0.916103
1 0.0432165 2.41507 0.905504
1 1.65692 1.62334 13.0809
1 2.51401 2.30423 13.125
1 2.4488 1.65451 0.802797
1 1.69622 2.40666 0.801924
1 3.33878 1.61858 0.0357761
1 4.13147 2.39614 13.0754
1 4.22786 1.68811 0.833407
1 3.31352 2.40168 0.775841
1 5.00279 1.48616 12.8828
1 5.86977 2.52095 13.0602
1 5.64318 1.52963 0.662552
1 4.93956 2.49116 0.906623
1 0.0691464 3.35664 13.0414
1 0.876157 4.21485 13.1509
1 0.852035 3.19733 0.813656
1 0.0268532 4.12782 0.778329
1 1.69217 3.17826 13.1294
1 2.59779 4.15821 0.0229245
1 2.45487 3.3144 0.658987
1 1.69802 4.06705 0.804673
1 3.36071 3.20488 13.1358
1 4.22952 4.08014 13.1321
1 4.16064 3.22599 0.674237
1 3.49736 4.14568 0.70868
1 4.94295 3.27102 0.0552434
1 5.89174 3.8951 0.107786
1 5.80607 3.08114 0.846548
1 4.96891 4.04155 0.787489
1 13.0841 4.98279 13.0761
1 0.831544 5.59571 0.0138651
1 0.779825 4.94738 0.856574
1 0.0459661 5.70722 0.743581
1 1.77469 4.94946 0.0476538
1 2.38043 5.75096 12.9648
1 2.49072 4.94314 0.895849
1 1.62269 5.77365 0.873328
1 3.31244 4.9513 0.10605
1 4.00376 5.88006 13.1465
1 4.23183 4.97077 0.764966
1 3.2603 5.83082 0.836356
1 5.01792 4.75578 13.1504
1 5.78333 5.83236 13.0461
1 5.8349 4.90159 0.848709
1 4.95308 5.79643 0.790216
1 0.0924468 6.46265 13.1093
1 0.803843 7.41365 0.0506383
1 0.770009 6.46072 0.830815
1 13.0814 7.24765 0.773123
1 1.64577 6.4951 0.0416085
1 2.27143 7.39247 13.1457
1 2.44385 6.55218 0.872963
1 1.67945 7.36928 0.766976
1 3.21383 6.5716 13.0933
1 4.14639 7.42044 0.0708569
1 3.88788 6.65447 0.735571
1 3.15146 7.4562 0.890809
1 4.88292 6.62225 0.0988772
1 5.63966 7.39113 0.0323742
1 5.77015 6.50648 0.958602
1 4.83665 7.34242 0.914544
1 13.1152 8.19271 0.294967
1 0.75976 9.00436 13.0881
1 0.901814 8.2979 0.798994
1 13.0694 9.05576 0.803162
1 1.67529 8.48521 13.096
1 2.42493 9.15171 13.0009
1 2.43488 8.22508 0.8307
1 1.75661 9.02671 0.850968
1 3.29857 8.17981 0.112554
1 4.18082 9.14608 13.095
1 4.16071 8.33003 0.817396
1 3.19458 9.06092 0.687535
1 4.82454 8.21723 13.0841
1 5.87363 9.05497 0.0050177
1 5.75461 8.17299 0.943741
1 5.06177 9.03337 0.85409
1 0.0630315 9.85648 0.0653731
1 0.61668 10.8124 0.0102239
1 0.745245 10.008 0.777378
1 13.0827 10.8241 0.822738
1 1.56964 9.84338 13.1368
1 2.51062 10.7739 13.114
1 2.48262 9.94413 0.681285
1 1.56943 10.7423 0.768699
1 3.33198 9.86182 13.0173
1 4.11951 10.6735 0.0110787
1 4.02544 9.95181 0.810521
1 3.22291 10.6658 0.775052
1 5.06157 9.83151 0.0256944
1 5.89997 10.6082 0.0166926
1 5.78112 9.8788 0.894514
1 4.88874 10.6672 0.873317
1 12.9958 11.6281 0.0112008
1 0.862132 12.4602 0.0476856
1 0.827943 11.6228 0.839896
1 0.121828 12.4644 0.820282
1 1.48877 11.6464 0.0579997
1 2.37975 12.4543 13.1325
1 2.48478 11.5944 0.742884
1 1.73373 12.377 0.797531
1 3.25836 11.5663 0.0348917
1 4.18037 12.4423 12.9784
1 4.081 11.452 0.811813
1 3.22172 12.5533 0.684579
1 4.9753 11.4836 0.0559517
1 5.88371 12.2929 0.0356155
1 5.81054 11.3531 0.838421
1 4.72275 12.3168 0.830664
1 0.0681331 0.143787 1.62818
1 0.885253 0.810079 1.81641
1 0.812474 0.0677861 2.51838
1 13.0738 0.819802 2.44038
1 1.65745 0.00478339 1.65307
1 2.51805 0.855132 1.6905
1 2.50096 13.0752 2.3444
1 1.70127 0.89425 2.45692
1 3.19436 0.0583329 1.6574
1 4.04368 0.842959 1.62373
1 3.98192 13.1125 2.44452
1 3.31131 0.790043 2.50392
1 4.81788 0.018303 1.7358
1 5.69133 0.723818 1.7554
1 5.77423 0.0206685 2.60375
1 4.77436 0.823069 2.54189
1 13.1348 1.59936 1.62992
1 0.959268 2.44523 1.62198
1 0.92416 1.72474 2.46127
1 0.0783585 2.37864 2.44984
1 1.70098 1.71943 1.63706
1 2.50326 2.45035 1.58366
1 2.47458 1.6597 2.33775
1 1.66272 2.52821 2.46212
1 3.27501 1.68238 1.62613
1 4.07038 2.45489 1.58635
1 3.96898 1.64256 2.43844
1 3.23213 2.47091 2.43001
1 4.94729 1.66786 1.65575
1 5.78268 2.36696 1.63849
1 5.63711 1.54943 2.58432
1 4.87898 2.33859 2.72864
1 0.122866 3.17436 1.6355
1 0.790623 4.07559 1.59852
1 0.890211 3.26286 2.63455
1 0.0173436 4.06132 2.48761
1 1.77736 3.20496 1.60664
1 2.59412 4.06986 1.66182
1 2.43821 3.20481 2.48764
1 1.68368 4.08986 2.35869
1 3.27558 3.27993 1.57902
1 4.07043 3.99852 1.60005
1 4.24299 3.27352 2.55329
1 3.44027 4.12013 2.61187
1 4.99813 3.24593 1.65807
1 5.8325 3.97742 1.61139
1 5.75442 3.13036 2.47667
1 5.10024 4.0279 2.56802
1 0.129746 5.09474 1.66614
1 0.803115 5.79868 1.68228
1 0.794858 4.83927 2.48497
1 0.0349195 5.76406 2.5347
1 1.52227 4.90065 1.62467
1 2.3311 5.60054 1.58419
1 2.4653 4.94905 2.37757
1 1.76717 5.72364 2.52979
1 3.43969 4.9006 1.56526
1 4.04631 5.73764 1.59729
1 4.17753 4.84961 2.42762
1 3.25492 5.77645 2.32362
1 4.96376 4.72889 1.70441
1 5.71198 5.56781 1.67372
1 5.87994 4.78046 2.48039
1 4.90426 5.6962 2.38938
1 0.0373289 6.56119 1.52011
1 0.823977 7.3272 1.64859
1 0.758858 6.65394 2.40175
1 13.028 7.34913 2.41696
1 1.59562 6.51262 1.6811
1 2.32761 7.32034 1.62027
1 2.48161 6.58087 2.47492
1 1.60631 7.3716 2.38112
1 3.25355 6.68355 1.66683
1 4.04622 7.4273 1.66785
1 4.182 6.45488 2.51013
1 3.20522 7.4747 2.49129
1 4.83228 6.50481 1.59446
1 5.72765 7.29786 1.64758
1 5.82062 6.43226 2.38046
1 5.00718 7.23597 2.60496
1 0.069343 8.1317 1.55695
1 0.790441 9.15856 1.52253
1 0.67518 8.1466 2.40408
1 13.1353 9.00426 2.40733
1 1.66682 8.28982 1.57699
1 2.57845 9.13482 1.66179
1 2.39533 8.37519 2.50954
1 1.49822 9.08962 2.41102
1 3.13867 8.20115 1.64593
1 4.05979 9.1242 1.60006
1 3.97404 8.12414 2.53408
1 3.35022 8.95903 2.47544
1 4.90822 8.28131 1.7081
1 5.84912 9.00169 1.76015
1 5.77558 8.18101 2.43559
1 4.87977 8.99817 2.42657
1 13.0665 9.94399 1.57506
1 0.785073 10.6971 1.60969
1 0.855647 9.8512 2.49614
1 0.106023 10.7547 2.50054
1 1.54583 9.90346 1.58022
1 2.34594 10.6396 1.61732
1 2.37234 9.89148 2.37095
1 1.52885 10.6023 2.47922
1 3.32259 9.99643 1.65931
1 4.09355 10.7341 1.72104
1 4.01099 10.0018 2.52497
1 3.12537 10.7948 2.35256
1 4.91709 9.86726 1.72818
1 5.70364 10.7268 1.85568
1 5.85238 9.87254 2.41157
1 4.83458 10.7561 2.63594
1 0.158265 11.5999 1.63388
1 0.999159 12.3162 1.60679
1 0.906509 11.4349 2.44741
1 0.211144 12.3604 2.42249
1 1.66084 11.5335 1.57434
1 2.4873 12.4253 1.49533
1 2.37923 11.698 2.4012
1 1.57163 12.3862 2.43892
1 3.19897 11.7002 1.49425
1 4.22557 12.3007 1.78624
1 4.15078 11.5123 2.41439
1 3.32762 12.305 2.45077
1 4.93626 11.4657 1.59534
1 5.75153 12.2975 1.52491
1 5.73047 11.5431 2.58452
1 4.96044 12.437 2.60703
1 13.0317 0.0376349 3.26371
1 0.703221 0.871778 3.21633
1 0.863159 0.0170267 4.19048
1 13.1057 0.851393 3.9146
1 1.53656 0.102224 3.31784
1 2.55197 0.835524 3.21199
1 2.42275 0.0213792 3.97182
1 1.59358 0.958761 4.05561
1 3.32999 0.0304751 3.24209
1 4.02639 0.815437 3.31993
1 4.13876 13.0598 4.12344
1 3.29387 0.81483 4.06041
1 4.96169 0.117902 3.44541
1 5.67884 0.803309 3.36305
1 5.75828 0.0664439 4.17232
1 4.85274 0.789951 4.28091
1 13.1378 1.69234 3.26618
1 0.718277 2.44491 3.32361
1 0.818701 1.76378 4.23471
1 12.9715 2.42879 4.00629
1 1.64038 1.78774 3.3489
1 2.44684 2.47657 3.19852
1 2.46107 1.63075 4.12272
1 1.62886 2.44473 4.09439
1 3.25194 1.6373 3.24269
1 4.00952 2.49239 3.42193
1 3.93147 1.65329 4.13417
1 3.19752 2.51757 4.08458
1 4.80486 1.50779 3.43885
1 5.74202 2.31792 3.42125
1 5.49322 1.58474 4.31903
1 4.74527 2.37864 4.26533
1 13.0977 3.25006 3.22804
1 0.859989 4.17551 3.27517
1 0.826721 3.27681 4.02008
1 0.0898326 4.15635 4.02784
1 1.72122 3.33084 3.32904
1 2.45251 4.09164 3.10508
1 2.59682 3.36911 3.98756
1 1.69314 4.0654 4.09863
1 3.31569 3.28123 3.19362
1 4.14706 4.14899 3.38404
1 4.00014 3.38862 4.18646
1 3.34278 4.24858 4.1388
1 4.76112 3.19481 3.45594
1 5.84063 4.14636 3.37693
1 5.69757 3.18374 4.14635
1 4.95909 4.12578 4.2152
1 0.0830785 5.06205 3.26228
1 0.871216 5.76844 3.23728
1 0.809443 4.94526 3.96921
1 13.113 5.69058 4.05661
1 1.75131 4.9703 3.31128
1 2.52128 5.88846 3.27982
1 2.40335 5.16438 4.03755
1 1.61902 5.89757 4.04646
1 3.20965 4.87381 3.2382
1 3.86299 5.59659 3.21459
1 4.01664 4.95943 4.06817
1 3.16246 5.92387 4.13374
1 5.06667 4.86127 3.4586
1 5.80205 5.6151 3.13559
1 5.89155 5.01377 4.24551
1 4.90572 5.74084 4.19321
1 0.0183474 6.5955 3.24564
1 0.854813 7.33928 3.16923
1 0.733099 6.62304 4.1721
1 0.0364319 7.40906 3.89405
1 1.55471 6.54921 3.08498
1 2.35047 7.37124 3.23938
1 2.28456 6.65111 4.05406
1 1.48249 7.40415 3.9345
1 3.3036 6.6982 3.37856
1 4.19249 7.32456 3.2523
1 4.17699 6.43671 3.90115
1 3.26361 7.48621 4.06468
1 5.01281 6.40963 3.29244
1 5.79226 7.34906 3.26879
1 5.76677 6.49978 4.10673
1 5.03467 7.32338 4.12001
1 0.0443856 8.28238 3.22513
1 0.863538 8.9451 3.12091
1 0.81781 8.18253 4.06367
1 0.0784133 9.14446 3.99765
1 1.65822 8.26878 3.24076
1 2.44525 9.05004 3.26347
1 2.36879 8.09518 4.08296
1 1.53038 9.03573 3.94418
1 3.31013 8.26349 3.39443
1 4.26635 9.10726 3.41674
1 4.09569 8.23646 4.1353
1 3.33523 9.12057 4.11077
1 4.94839 8.24079 3.11988
1 5.71141 8.87102 3.2163
1 5.70457 8.12947 4.06305
1 5.00603 8.91622 4.29312
1 0.0202916 9.80262 3.12774
1 0.841723 10.681 3.30195
1 0.8113 9.90301 4.01873
1 0.0241237 10.573 3.98356
1 1.78435 9.90882 3.26467
1 2.47086 10.7315 3.34811
1 2.50837 9.92505 4.08555
1 1.61452 10.727 4.06972
1 3.28666 9.89449 3.29137
1 4.04581 10.7927 3.25073
1 4.04424 9.88827 4.08731
1 3.28204 10.6669 4.08987
1 5.01481 9.83287 3.1219
1 5.71566 10.7933 3.37098
1 5.77554 9.89231 3.97102
1 4.74456 10.6551 4.04441
1 0.116697 11.5626 3.34331
1 0.790223 12.3727 3.22546
1 0.884273 11.5646 4.0565
1 0.0809924 12.5051 4.02596
1 1.65931 11.5797 3.25316
1 2.3489 12.4137 3.16775
1 2.52076 11.5083 4.13145
1 1.68632 12.3662 4.13648
1 3.29719 11.5843 3.30603
1 4.01343 12.3979 3.346
1 4.00892 11.4503 4.01453
1 3.31965 12.4001 4.21927
1 4.9082 11.6465 3.23049
1 5.66931 12.4051 3.32485
1 5.55693 11.5933 4.01868
1 4.83339 12.3697 4.07703
1 13.1523 0.101234 4.82687
1 0.858209 0.95267 4.9602
1 0.687286 0.231595 5.78166
1 0.0136579 1.06163 5.72938
1 1.68866 0.0464141 4.98205
1 2.52329 0.821863 4.84811
1 2.32662 0.0825677 5.81589
1 1.70818 0.859751 5.72893
1 3.17082 0.0425519 5.10369
1 3.89601 0.797829 5.02382
1 4.08257 13.1026 5.71231
1 3.12579 0.895169 5.85032
1 5.02449 13.1334 4.93665
1 5.74066 0.766856 5.13149
1 5.77783 13.1112 5.74742
1 4.7826 0.740172 5.78107
1 13.1074 1.68746 4.88335
1 0.629581 2.5349 4.87689
1 0.778575 1.81635 5.68894
1 0.0778919 2.50191 5.75349
1 1.6468 1.62634 4.98712
1 2.33857 2.49702 4.85904
1 2.43967 1.80351 5.69412
1 1.62366 2.48879 5.65858
1 3.2611 1.5367 4.97601
1 3.9974 2.50626 4.95415
1 4.01346 1.65235 5.83908
1 3.22109 2.56292 5.72021
1 4.70887 1.57027 5.03713
1 5.69024 2.48745 4.98383
1 5.69803 1.65307 5.64564
1 4.93704 2.41043 5.67697
1 0.0178038 3.42415 5.0309
1 0.85404 4.18682 4.80998
1 0.863421 3.35673 5.6777
1 0.017442 4.01818 5.92602
1 1.84671 3.392 4.86228
1 2.49956 4.3294 4.89221
1 2.37618 3.30877 5.86869
1 1.5203 4.26547 5.69509
1 3.18647 3.33576 4.98376
1 4.04529 4.22266 5.02695
1 4.15113 3.35232 5.70746
1 3.27571 4.03436 5.74235
1 4.85123 3.29417 4.85441
1 5.85767 3.99532 4.78414
1 5.80022 3.19934 5.74612
1 4.95591 4.26458 5.67169
1 13.0138 4.97317 4.99849
1 0.636207 5.68868 4.88044
1 0.655419 5.06915 5.77072
1 13.1303 5.78117 5.72513
1 1.58823 5.0656 4.78244
1 2.4097 5.84252 4.92713
1 2.48069 5.0907 5.74634
1 1.56394 5.76189 5.63845
1 3.23107 5.05984 4.87105
1 4.01061 5.78067 4.80837
1 4.0948 5.1123 5.68686
1 3.17075 5.83803 5.70483
1 4.87522 5.01675 4.9194
1 5.84793 5.8254 4.92765
1 5.77774 4.9315 5.6484
1 4.94672 5.74055 5.77828
1 0.0843285 6.59437 4.92304
1 0.714843 7.40097 4.88808
1 0.770733 6.54439 5.7626
1 13.0326 7.42285 5.67829
1 1.50881 6.54714 4.93223
1 2.2992 7.29659 4.84547
1 2.36031 6.58971 5.8126
1 1.65532 7.3485 5.64988
1 3.33052 6.58594 4.92685
1 4.05639 7.37863 4.80833
1 3.98786 6.55641 5.8825
1 3.15444 7.30028 5.71879
1 4.81559 6.529 4.94524
1 5.67564 7.17493 5.00407
1 5.83352 6.56487 5.82123
1 4.93071 7.20756 5.83816
1 0.0457065 8.32118 4.80947
1 0.93433 9.05423 4.76386
1 0.919863 8.15686 5.70487
1 0.0621797 8.99932 5.64314
1 1.62513 8.16169 4.79205
1 2.48338 8.97813 4.75408
1 2.39471 8.16186 5.77689
1 1.6106 8.98437 5.56909
1 3.34333 8.13821 5.15195
1 4.01006 8.97997 5.04941
1 4.18644 7.96577 5.77029
1 3.04717 8.95837 5.83749
1 4.94701 8.11653 4.98226
1 5.79662 8.98851 4.89597
1 5.79633 8.17847 5.86213
1 4.84354 8.88975 5.69798
1 0.133644 9.82852 4.90321
1 0.860642 10.6343 4.85088
1 0.806575 9.74024 5.77903
1 0.114557 10.6684 5.73157
1 1.70056 9.86807 4.8416
1 2.44098 10.6656 4.84004
1 2.39127 9.90922 5.67031
1 1.56787 10.5595 5.77866
1 3.24707 9.8249 4.86439
1 4.04026 10.5594 4.93479
1 4.0193 9.67772 5.82717
1 3.22698 10.6043 5.78547
1 4.8641 9.78255 5.02676
1 5.70014 10.6917 4.8606
1 5.65249 9.7798 5.71856
1 4.76059 10.5765 5.73886
1 13.1438 11.2792 4.82462
1 0.870795 12.1476 4.86189
1 0.894336 11.4879 5.63391
1 0.174594 12.382 5.63535
1 1.75516 11.4549 4.96265
1 2.46642 12.3162 4.86199
1 2.41275 11.429 5.76061
1 1.6579 12.3694 5.77541
1 3.22853 11.3619 5.09329
1 4.10827 12.372 4.99574
1 4.07637 11.3726 5.70012
1 3.18349 12.2925 5.78574
1 4.80934 11.4634 4.94636
1 5.68333 12.3642 4.83066
1 5.59804 11.4771 5.66693
1 4.89766 12.3884 5.71307
1 13.1335 13.1138 6.58532
1 0.874011 0.807212 6.71391
1 0.664579 0.169904 7.51612
1 13.0223 0.917532 7.42075
1 1.61111 0.0891616 6.6619
1 2.37963 0.971522 6.71176
1 2.51269 13.0436 7.38687
1 1.62643 0.756189 7.44831
1 3.1696 13.0782 6.57326
1 3.9116 0.805663 6.60597
1 4.13545 13.1113 7.35275
1 3.1606 0.782402 7.43874
1 4.91356 13.1259 6.49977
1 5.56702 0.753123 6.45813
1 5.4976 13.1272 7.40224
1 4.80979 0.769616 7.44245
1 12.9982 1.7018 6.64195
1 0.883051 2.46659 6.47154
1 0.847094 1.65644 7.3575
1 12.9302 2.42628 7.45502
1 1.55595 1.63301 6.57544
1 2.32724 2.48876 6.42724
1 2.3183 1.69665 7.47368
1 1.66126 2.60322 7.40344
1 3.15353 1.7935 6.61805
1 4.1517 2.54199 6.47577
1 4.092 1.67736 7.49509
1 3.33456 2.46812 7.40951
1 4.71137 1.5438 6.59079
1 5.75246 2.46577 6.50945
1 5.53389 1.76773 7.31578
1 4.89131 2.66586 7.29826
1 0.0347198 3.12322 6.63002
1 0.843564 4.14789 6.63319
1 0.739398 3.25131 7.35199
1 13.148 4.01437 7.30852
1 1.54283 3.3886 6.57958
1 2.37433 4.1051 6.52457
1 2.46529 3.31412 7.41072
1 1.57595 4.0976 7.46571
1 3.28382 3.23824 6.59475
1 4.18689 4.25717 6.41588
1 4.04707 3.31668 7.46447
1 3.34979 4.09568 7.07922
1 4.85009 3.44665 6.54534
1 5.78821 4.09887 6.40419
1 5.71275 3.35294 7.43555
1 4.67571 4.11432 7.47272
1 0.0504797 4.98098 6.55402
1 0.641935 5.85854 6.59363
1 0.761373 4.9364 7.44158
1 13.0002 5.84208 7.31846
1 1.70257 4.92386 6.52866
1 2.35025 5.82961 6.56272
1 2.35196 4.89731 7.62133
1 1.47127 5.71416 7.45128
1 3.13822 4.98812 6.62202
1 3.95118 5.76806 6.62096
1 3.99022 4.9639 7.35607
1 3.11031 5.78998 7.41041
1 4.92448 4.93427 6.69628
1 5.75411 5.75414 6.53869
1 5.78157 4.95088 7.40081
1 4.88807 5.66131 7.41859
1 13.033 6.5826 6.56878
1 0.76392 7.37355 6.46623
1 0.804533 6.59909 7.47658
1 0.0266644 7.4958 7.19193
1 1.54126 6.67764 6.5633
1 2.439 7.39177 6.54849
1 2.18083 6.4875 7.49613
1 1.5597 7.42335 7.37937
1 3.13616 6.54575 6.61641
1 3.93665 7.37069 6.71228
1 3.99375 6.60835 7.46753
1 3.28429 7.37715 7.51285
1 4.88425 6.42343 6.64902
1 5.78206 7.39614 6.72595
1 5.59986 6.55177 7.45999
1 4.90089 7.38055 7.29121
1 0.0361933 8.15884 6.34874
1 0.831641 9.03809 6.74192
1 0.774934 8.1858 7.39301
1 0.0328444 9.18703 7.39982
1 1.5978 8.12281 6.61856
1 2.37521 8.86573 6.58891
1 2.47002 8.06468 7.37687
1 1.71785 8.97665 7.50215
1 3.25575 8.10797 6.47941
1 4.09625 8.81922 6.53578
1 4.13428 8.18946 7.42348
1 3.23251 8.85575 7.28337
1 4.94773 8.24804 6.58624
1 5.63982 9.04955 6.55707
1 5.71447 8.30989 7.35237
1 4.80315 8.95573 7.327
1 0.12529 9.8815 6.61033
1 0.915674 10.6414 6.59398
1 1.02344 9.77737 7.50209
1 13.1493 10.6815 7.39663
1 1.57904 9.79841 6.55136
1 2.29456 10.6966 6.57704
1 2.44574 9.84536 7.35859
1 1.57656 10.6637 7.48547
1 3.09149 9.85316 6.55276
1 4.00967 10.5947 6.47414
1 4.03192 9.85569 7.16546
1 3.25492 10.6489 7.18098
1 4.83284 9.65234 6.49267
1 5.58628 10.6167 6.58056
1 5.59609 9.83243 7.30998
1 4.73644 10.6457 7.24619
1 0.168193 11.4765 6.45599
1 0.815604 12.38 6.4869
1 0.896968 11.5836 7.25155
1 0.0822182 12.2939 7.53616
1 1.64305 11.5297 6.45583
1 2.39354 12.2948 6.50042
1 2.42844 11.4868 7.31826
1 1.59472 12.3616 7.38591
1 3.26801 11.4239 6.40665
1 4.04576 12.2659 6.47332
1 4.00897 11.4368 7.22884
1 3.30342 12.1852 7.27198
1 4.87701 11.5115 6.49621
1 5.74825 12.194 6.41598
1 5.66917 11.4217 7.19525
1 4.8647 12.3428 7.19355
1 13.0906 0.0216721 8.22196
1 0.843312 0.934569 8.33697
1 0.796407 0.186731 9.13298
1 13.0946 0.979528 9.05191
1 1.64244 13.0352 8.12671
1 2.49534 0.943402 8.21287
1 2.39035 13.0509 8.89846
1 1.72652 0.663914 8.99124
1 3.25364 13.1476 8.28997
1 4.02794 0.66386 8.28729
1 4.111 13.0442 9.07245
1 3.24835 0.592643 9.09217
1 4.86089 13.1203 8.23126
1 5.80128 0.844668 8.20971
1 5.71187 13.085 8.99454
1 4.94021 0.881393 8.87457
1 13.1402 1.64816 8.28064
1 0.85392 2.46396 8.08684
1 0.74601 1.69648 9.04464
1 0.0186306 2.47835 9.08101
1 1.52125 1.65167 8.30827
1 2.48225 2.50204 8.18467
1 2.50888 1.69388 9.03033
1 1.58293 2.47861 9.09262
1 3.42152 1.7578 8.30976
1 4.19067 2.55973 8.23847
1 4.06022 1.5824 9.12182
1 3.30313 2.40196 9.11917
1 4.88699 1.68052 8.20118
1 5.70491 2.47113 8.07392
1 5.93578 1.61436 9.05826
1 4.97865 2.33407 9.07835
1 13.1233 3.25199 8.18106
1 0.839512 4.12083 8.21032
1 0.826437 3.20546 9.02077
1 13.0648 4.03975 8.99074
1 1.6014 3.20809 8.21168
1 2.45895 4.00959 8.27653
1 2.55493 3.25993 9.09419
1 1.63257 4.14248 8.91052
1 3.28628 3.27206 8.1137
1 4.03709 4.00941 8.26571
1 4.1642 3.28944 9.03079
1 3.34053 3.92942 9.04834
1 4.92322 3.25479 8.25982
1 5.68634 4.19684 8.18575
1 5.80466 3.24568 8.83935
1 4.98427 4.12855 9.129
1 0.0260913 5.03741 8.22346
1 0.682675 5.96078 8.23842
1 0.846618 4.83602 8.99878
1 13.0778 5.89769 8.90787
1 1.52585 5.08224 8.28355
1 2.27361 5.77388 8.2316
1 2.34103 4.99525 9.10924
1 1.54312 5.83225 9.10983
1 3.1863 4.97413 8.29538
1 4.04448 5.70558 8.18706
1 3.96865 4.9237 9.1277
1 3.08186 5.85789 9.07212
1 4.78482 4.86833 8.21419
1 5.61804 5.69166 8.28549
1 5.64701 4.90826 8.97116
1 4.75606 5.73241 9.06763
1 13.0158 6.67885 8.11125
1 0.749557 7.46336 8.34034
1 0.694961 6.57934 9.20079
1 0.0341931 7.34191 9.08043
1 1.5475 6.54046 8.26906
1 2.33173 7.36952 8.11918
1 2.39546 6.65088 9.0798
1 1.60653 7.44094 8.99432
1 3.1087 6.58157 8.26267
1 4.09496 7.31771 8.24254
1 4.03698 6.60811 9.02126
1 3.33179 7.51368 8.98682
1 4.8678 6.55139 8.16167
1 5.71118 7.4745 8.1221
1 5.71011 6.58287 8.88459
1 4.87754 7.36654 8.97917
1 0.0637156 8.24188 8.27064
1 0.763566 9.01509 8.29932
1 0.747413 8.21893 9.13621
1 13.1455 9.14771 9.17356
1 1.51403 8.29986 8.29958
1 2.53513 9.06066 8.19854
1 2.48352 8.09721 9.06831
1 1.74478 8.99446 9.08451
1 3.2561 8.15964 8.14515
1 4.02395 9.07458 8.27696
1 4.14697 8.24123 9.0352
1 3.30045 9.11923 9.11729
1 4.92827 8.14139 8.15663
1 5.6 9.0219 8.12652
1 5.8543 8.35481 9.06046
1 4.92034 9.01613 9.09747
1 13.1026 10.0074 8.24269
1 0.814313 10.5946 8.22324
1 0.821111 9.92801 9.14198
1 13.1514 10.8398 9.1564
1 1.6919 9.88989 8.37474
1 2.59935 10.6392 8.11626
1 2.55835 10.0542 9.10877
1 1.72495 10.7502 9.11746
1 3.32284 9.74809 8.01908
1 4.00461 10.6281 8.00382
1 4.18336 9.91111 8.98512
1 3.36699 10.6924 8.93742
1 4.74976 9.89392 8.00674
1 5.65151 10.6911 8.09595
1 5.59128 9.88951 8.93605
1 4.78564 10.7574 8.81684
1 0.142747 11.4824 8.19908
1 0.902803 12.2094 8.28778
1 0.812454 11.5302 9.1356
1 0.230963 12.4013 9.1452
1 1.77328 11.4894 8.30744
1 2.48215 12.3343 8.0536
1 2.57353 11.3325 8.99545
1 1.64818 12.2957 9.17555
1 3.3073 11.5337 8.12085
1 3.9203 12.2956 8.12173
1 4.04853 11.529 8.86229
1 3.20625 12.2119 8.94277
1 4.89973 11.4556 7.97205
1 5.68942 12.1479 8.22171
1 5.73881 11.4195 9.07227
1 4.84262 12.2879 8.93992
1 0.0217817 0.232552 9.87015
1 0.997028 0.973059 9.73121
1 0.836117 0.00471659 10.7093
1 13.145 0.819642 10.7717
1 1.62604 0.0296906 9.79863
1 2.49556 0.666167 9.86039
1 2.40065 13.1145 10.7495
1 1.66214 0.870678 10.7466
1 3.27717 12.92 9.84941
1 3.99861 0.650093 9.87136
1 4.08904 13.0386 10.7216
1 3.2649 0.780437 10.7421
1 4.93745 13.0758 9.94875
1 5.91487 0.711735 9.93503
1 5.78122 13.0812 10.617
1 5.00057 0.751435 10.6571
1 0.0871203 1.56607 9.93471
1 0.756214 2.47523 9.92621
1 0.886832 1.668 10.6542
1 13.0548 2.48316 10.6666
1 1.68114 1.76076 9.88528
1 2.52494 2.49225 9.85504
1 2.55271 1.67213 10.6203
1 1.65581 2.57451 10.7108
1 3.36061 1.57987 9.98847
1 4.16871 2.48139 9.91058
1 4.29132 1.60201 10.6766
1 3.5119 2.48894 10.7341
1 4.95305 1.49193 9.73953
1 5.74576 2.35961 9.93759
1 5.63467 1.57776 10.7479
1 4.96271 2.50559 10.5477
1 13.0723 3.27415 9.93175
1 0.68832 4.15612 9.8928
1 0.873544 3.26917 10.6457
1 13.0987 4.08792 10.6737
1 1.78048 3.30133 9.84962
1 2.50705 4.19909 9.78591
1 2.49029 3.25637 10.699
1 1.52665 4.13933 10.6512
1 3.29575 3.29712 9.90661
1 4.11846 4.09925 9.84867
1 4.34372 3.30378 10.7175
1 3.26711 3.97335 10.7267
1 4.9475 3.22298 9.7411
1 5.88781 4.00703 9.80311
1 5.7744 3.26298 10.6017
1 5.08907 4.12614 10.7587
1 0.0688995 5.01831 9.88742
1 0.760089 5.7551 9.95327
1 0.86229 4.97302 10.8013
1 13.1159 5.82443 10.7441
1 1.45046 4.93221 9.93441
1 2.53868 5.62561 10.0844
1 2.56291 4.82794 10.7627
1 1.65384 5.76541 10.7202
1 3.27253 4.97716 9.90563
1 4.06142 5.86408 9.87537
1 4.07392 4.85717 10.6734
1 3.24232 5.66005 10.785
1 4.88109 5.03939 9.90565
1 5.66091 5.8843 9.72818
1 5.82545 4.86294 10.4591
1 4.91094 5.68788 10.6913
1 13.1161 6.48317 9.98783
1 0.720023 7.44509 9.8637
1 0.783708 6.56861 10.6709
1 0.092158 7.38298 10.7148
1 1.58184 6.57075 9.88828
1 2.34012 7.40653 9.9197
1 2.35982 6.67568 10.864
1 1.56288 7.37563 10.7225
1 3.16787 6.55909 10.0343
1 4.06907 7.29447 9.83601
1 4.06862 6.68296 10.6883
1 3.22521 7.44501 10.5721
1 4.84251 6.5406 9.77258
1 5.70531 7.15278 9.82233
1 5.55963 6.52987 10.8178
1 4.87851 7.449 10.7515
1 13.1125 8.16006 9.82826
1 0.849606 9.04972 9.89674
1 0.796678 8.16141 10.6057
1 13.0794 8.9941 10.7216
1 1.53643 8.19222 9.8474
1 2.45214 8.99161 9.87827
1 2.38293 8.13448 10.7509
1 1.65076 8.99897 10.6723
1 3.30958 8.34553 9.80581
1 4.003 9.14985 9.92823
1 4.14893 8.2598 10.5862
1 3.21819 8.97522 10.7228
1 4.90452 8.12371 9.74925
1 5.90524 9.03021 9.88053
1 5.78495 8.24222 10.6992
1 4.96451 9.07989 10.6439
1 0.028259 9.79467 10.0038
1 0.753774 10.687 9.92054
1 0.782558 10.0095 10.7328
1 0.00369138 10.672 10.7353
1 1.61431 9.9215 9.99461
1 2.4053 10.7657 10.0317
1 2.46848 9.9785 10.791
1 1.5924 10.7009 10.7193
1 3.35373 9.91402 9.86278
1 4.22839 10.7521 9.70146
1 4.25673 9.99292 10.6876
1 3.40758 10.7109 11.0117
1 4.99896 10.0156 9.86159
1 5.82228 10.6068 10.0534
1 5.86276 9.71323 10.7584
1 4.92323 10.8014 10.5681
1 0.085343 11.5897 9.88968
1 0.865352 12.412 9.92127
1 0.745291 11.4236 10.7868
1 0.0243785 12.2986 10.6765
1 1.4583 11.5264 10.0342
1 2.43666 12.1275 9.93014
1 2.33725 11.5241 10.7737
1 1.6251 12.3069 10.5964
1 3.2799 11.3205 9.69154
1 4.02896 12.1439 9.82043
1 4.01976 11.559 10.7068
1 3.24932 12.3247 10.8194
1 4.89317 11.5388 9.69485
1 5.80426 12.1784 9.80769
1 5.79727 11.496 10.6948
1 4.97445 12.3067 10.7556
1 0.0713532 0.00379554 11.5703
1 0.836128 0.879068 11.4792
1 0.876194 0.168616 12.3205
1 0.00999184 0.88509 12.3562
1 1.46337 12.9872 11.5998
1 2.46496 0.830975 11.5129
1 2.31379 0.0340418 12.3859
1 1.62468 0.954115 12.1992
1 3.28232 0.00500002 11.5074
1 4.15257 0.798474 11.559
1 4.17918 0.148511 12.3917
1 3.18268 0.837026 12.3012
1 4.98142 0.0195748 11.4119
1 5.92092 0.804429 11.3876
1 5.98192 13.1497 12.295
1 5.16495 0.672504 12.2869
1 13.0861 1.67099 11.5492
1 0.832039 2.51145 11.5254
1 0.865252 1.75428 12.2567
1 0.0575191 2.50885 12.2471
1 1.77649 1.76045 11.4579
1 2.57715 2.48049 11.408
1 2.55504 1.63003 12.2565
1 1.63945 2.49044 12.3062
1 3.45128 1.5701 11.5166
1 4.26361 2.39921 11.6581
1 4.03587 1.49575 12.4287
1 3.32043 2.43226 12.3994
1 4.98197 1.54543 11.6124
1 5.69393 2.43319 11.494
1 5.84499 1.53153 12.2321
1 5.0597 2.61392 12.4094
1 13.0609 3.38411 11.5151
1 0.833803 4.18907 11.4644
1 0.778731 3.29104 12.2876
1 0.0328063 4.17074 12.3335
1 1.68971 3.29793 11.6167
1 2.50899 3.98014 11.6676
1 2.54191 3.15996 12.4214
1 1.84686 3.98265 12.4734
1 3.39094 3.20657 11.5482
1 4.19561 4.05706 11.4616
1 4.13363 3.3722 12.2867
1 3.37601 4.15115 12.4758
1 4.99874 3.19168 11.477
1 5.86605 4.14137 11.6164
1 5.87635 3.23276 12.1183
1 5.07129 3.97271 12.3568
1 0.0406018 4.89937 11.5166
1 0.884918 5.76953 11.436
1 0.742353 4.907 12.3655
1 0.0690832 5.73394 12.3263
1 1.80477 4.84744 11.631
1 2.49627 5.7723 11.4774
1 2.54322 4.87427 12.33
1 1.45491 5.71861 12.2883
1 3.33888 4.81831 11.7119
1 4.07995 5.59007 11.5486
1 4.28303 4.79759 12.2839
1 3.35714 5.69524 12.2977
1 4.94157 4.88808 11.4814
1 5.7784 5.70773 11.4262
1 5.7467 4.96058 12.3283
1 4.82941 5.7377 12.3115
1 13.1492 6.57891 11.5088
1 0.813221 7.49616 11.561
1 0.945239 6.61865 12.3977
1 0.032527 7.38354 12.4582
1 1.56862 6.60025 11.5962
1 2.28985 7.4227 11.5899
1 2.28303 6.73305 12.4008
1 1.47849 7.51921 12.3498
1 3.30423 6.61428 11.4474
1 4.03825 7.48681 11.5129
1 4.15028 6.66623 12.3777
1 3.29315 7.47045 12.4275
1 4.75152 6.52097 11.4965
1 5.68544 7.32147 11.6557
1 5.5297 6.48257 12.1854
1 4.88328 7.33205 12.3341
1 13.1161 8.29279 11.5876
1 0.774976 9.07053 11.3041
1 0.956268 8.37955 12.3133
1 0.0189485 8.99826 12.3532
1 1.62212 8.30585 11.4821
1 2.3827 9.13882 11.486
1 2.38081 8.32259 12.3494
1 1.64129 9.17414 12.2705
1 3.29823 8.20103 11.5298
1 4.23104 8.95563 11.4131
1 4.15455 8.16966 12.3042
1 3.34236 8.93514 12.4595
1 4.95772 8.20142 11.4403
1 5.81887 9.05582 11.6064
1 5.89299 8.16446 12.4467
1 4.95641 8.94112 12.3108
1 13.1024 9.77249 11.5458
1 0.695036 10.6489 11.6227
1 0.796448 9.83877 12.2973
1 13.0735 10.7559 12.3931
1 1.60321 9.92196 11.4966
1 2.39507 10.7188 11.5812
1 2.5112 9.84816 12.2361
1 1.69735 10.8315 12.4421
1 3.3988 9.7686 11.3969
1 4.34986 10.7433 11.4567
1 4.13539 9.88444 12.1817
1 3.39736 10.6902 12.3067
1 4.96702 9.85414 11.5029
1 5.64324 10.7304 11.6064
1 5.59314 9.94098 12.313
1 4.87831 10.7223 12.391
1 13.0542 11.6296 11.5237
1 0.706199 12.2889 11.5635
1 0.672845 11.6181 12.4742
1 13.1225 12.3987 12.3801
1 1.51864 11.5558 11.412
1 2.41779 12.3824 11.5633
1 2.54197 11.6365 12.4309
1 1.6319 12.2346 12.352
1 3.33637 11.6228 11.5466
1 4.15466 12.3511 11.424
1 4.06042 11.4998 12.2206
1 3.36358 12.4446 12.3589
1 4.99512 11.6701 11.6238
1 5.91872 12.3414 11.4233
1 5.70249 11.5634 12.2794
1 5.11879 12.5205 12.4151
1 6.75792 13.0265 0.0131575
1 7.39095 0.848736 13.0726
1 7.45845 13.102 0.933674
1 6.5966 0.796548 0.780558
1 8.18778 0.0333668 0.0148446
1 9.1349 0.940324 0.00239373
1 9.07345 13.0266 0.80256
1 8.16308 0.860259 0.767304
1 9.88352 0.071607 0.0194605
1 10.6888 0.77802 0.153944
1 10.7384 0.00065939 0.930993
1 9.78728 0.81413 0.906452
1 11.4835 0.0411907 0.0893505
1 12.2883 0.794091 13.1455
1 12.344 0.0304292 0.809333
1 11.5968 0.836365 0.821419
1 6.545 1.54936 13.1125
1 7.50404 2.46944 13.0958
1 7.40696 1.58166 0.703061
1 6.54407 2.34651 0.767939
1 8.28662 1.64265 13.068
1 9.03638 2.36636 13.1292
1 9.1199 1.68297 0.817821
1 8.35681 2.47319 0.69308
1 9.97865 1.68059 13.1521
1 10.7989 2.5962 0.0328397
1 10.7859 1.55792 0.839587
1 9.80949 2.56601 0.89059
1 11.4583 1.62594 0.00957078
1 12.2767 2.55017 0.00420503
1 12.3168 1.61287 0.92158
1 11.5863 2.43567 0.846646
1 6.69349 3.19829 13.1179
1 7.48957 4.05522 0.112975
1 7.40322 3.16077 0.877069
1 6.70284 4.1402 0.823677
1 8.2714 3.27917 0.0365449
1 9.02518 4.04793 0.0712142
1 9.03881 3.29265 0.863858
1 8.31476 4.0921 0.910395
1 9.84138 3.29311 0.0355664
1 10.6897 4.19933 0.0897391
1 10.6748 3.29141 0.866483
1 9.90186 4.10713 0.90554
1 11.5048 3.46974 13.1185
1 12.3563 4.2392 0.120137
1 12.3614 3.3457 0.882466
1 11.634 4.1307 0.980765
1 6.66253 4.84772 13.1323
1 7.38067 5.65368 0.0658077
1 7.45573 4.87339 0.799505
1 6.56299 5.68413 0.797192
1 8.18475 4.93335 0.0165263
1 8.93318 5.73563 0.0551166
1 9.04196 5.06585 0.935206
1 8.26772 5.69788 0.925864
1 9.80998 4.83577 0.118778
1 10.752 5.7849 0.0627608
1 10.7196 4.91033 0.879243
1 9.94295 5.82561 0.64557
1 11.5369 4.91906 0.0784388
1 12.3496 5.62647 13.1114
1 12.3879 5.0165 0.780562
1 11.451 5.73242 0.819882
1 6.41033 6.57864 0.076566
1 7.40916 7.26387 13.0044
1 7.45184 6.45707 0.779297
1 6.66445 7.31164 0.74649
1 8.25353 6.54461 13.0392
1 9.08207 7.39959 13.0411
1 8.93768 6.52233 0.82262
1 8.21699 7.37445 0.703922
1 9.83919 6.50439 13.0899
1 10.6615 7.4111 0.0821949
1 10.706 6.59667 0.785413
1 9.80243 7.16634 0.814227
1 11.4733 6.55823 13.1265
1 12.2807 7.38793 13.1391
1 12.3799 6.3748 0.692944
1 11.5269 7.32409 0.842511
1 6.74854 8.09152 0.000240915
1 7.55427 9.06982 0.108187
1 7.45572 8.21851 0.879368
1 6.72755 9.12751 0.747988
1 8.20564 8.07066 13.0899
1 9.0782 9.03503 13.0583
1 8.99217 8.21778 0.700609
1 8.40886 9.02312 0.8417
1 9.90323 8.25085 13.1308
1 10.7156 9.19008 0.0717316
1 10.677 8.32018 0.776078
1 9.96672 9.04692 0.816994
1 11.5923 8.18193 13.0795
1 12.4022 9.05061 0.00228161
1 12.1742 8.20208 0.785733
1 11.5697 9.1357 0.770801
1 6.60294 9.84562 12.833
1 7.45012 10.761 12.986
1 7.55189 10.0819 0.790843
1 6.591 10.6036 0.955071
1 8.24894 9.967 13.0482
1 8.99146 10.6575 13.1362
1 9.09492 9.83028 0.84432
1 8.29268 10.7734 1.09823
1 9.8892 9.95445 13.1492
1 10.8018 10.741 13.0522
1 10.7878 9.89882 0.812751
1 9.87654 10.7436 0.84114
1 11.6062 10.0445 0.0126018
1 12.3769 10.8513 0.0811462
1 12.4264 9.99137 0.682584
1 11.5812 10.7839 0.827469
1 6.62433 11.5916 13.0838
1 7.5089 12.26 13.05
1 7.50797 11.4996 0.979697
1 6.66627 12.3079 0.751504
1 8.22916 11.4576 13.1226
1 9.08365 12.3296 0.0309141