2048
Atoms. Timestep: 100000
1 4.38945 1.76646 1.24765
1 11.7796 6.2009 4.42394
1 4.0054 6.50565 6.82895
1 9.46067 9.1882 6.65634
1 1.23436 7.84309 2.80021
1 12.6328 3.35661 13.1107
1 3.20593 10.5958 3.6228
1 1.29379 5.32295 2.86121
1 10.4224 6.12847 4.36462
1 5.45128 6.2689 7.20888
1 8.12421 4.28468 8.54909
1 0.106782 9.40348 8.78386
1 0.282917 11.1487 3.18279
1 1.2961 10.5493 9.962
1 8.91527 2.01944 6.27587
1 5.57405 10.9879 1.55285
1 6.9489 8.06948 13.2874
1 1.43797 9.82822 12.9401
1 7.48846 9.83897 2.56537
1 4.54177 8.91948 9.93976
1 8.3053 3.1609 5.45366
1 7.21737 7.16624 3.99664
1 9.19893 1.28228 0.833929
1 9.51378 1.13355 7.1888
1 6.71506 7.05765 1.22286
1 5.37869 8.6419 7.83157
1 10.8287 2.8412 7.99146
1 7.13618 13.2188 1.75558
1 7.50746 8.3676 0.727309
1 1.2624 12.0824 0.28369
1 3.05379 6.64351 1.50496
1 10.5875 8.31859 0.733482
1 4.79405 10.6659 5.7459
1 6.97038 0.204047 0.575016
1 9.71655 12.5185 1.37707
1 8.12574 9.78452 3.4825
1 4.44388 12.4584 2.22354
1 0.445258 3.51776 7.27064
1 7.02797 2.25402 11.1911
1 4.90963 10.696 0.434379
1 11.5204 7.89361 0.903167
1 2.04366 1.5869 2.07768
1 9.00402 9.5208 4.4111
1 3.96165 11.9986 6.2861
1 5.86662 13.0644 2.975
1 8.77715 11.5023 11.0842
1 9.8453 5.7916 1.29441
1 2.54731 11.916 5.84148
1 7.83218 5.2587 13.215
1 1.34886 1.21135 5.15463
1 4.58194 8.37931 10.8855
1 7.37569 2.14555 2.83123
1 7.6688 11.4293 6.75521
1 11.9317 11.7461 13.3852
1 4.94008 4.07081 3.18673
1 3.6287 11.7308 10.8031
1 10.5459 0.673915 10.705
1 4.65435 4.08567 1.30726
1 0.729446 12.6075 11.004
1 9.25308 6.20922 11.9711
1 6.83815 0.973612 11.2719
1 11.3422 13.3508 12.5946
1 7.88659 2.74453 10.5755
1 1.51247 0.991102 6.08552
1 13.0723 3.11189 9.28015
1 10.604 11.6309 8.18076
1 3.65411 7.47072 3.95284
1 10.7331 7.09997 6.36033
1 3.16576 1.99792 5.97717
1 10.8465 8.00223 7.73468
1 7.49364 8.0312 9.52119
1 9.98616 12.1133 3.1879
1 0.711072 7.90524 12.4422
1 8.113 1.47283 10.2241
1 12.6678 2.15158 10.1974
1 6.92839 10.4494 3.21093
1 1.09059 2.41332 4.48205
1 7.2916 3.13977 11.8821
1 12.5583 9.60103 8.43558
1 5.19228 1.33129 9.35879
1 2.85861 4.92621 11.4428
1 4.23061 0.0572236 0.594304
1 6.65984 6.84036 9.2906
1 7.71149 3.77158 6.67222
1 1.07153 2.97442 11.9634
1 7.7858 1.88884 12.8422
1 3.33898 0.233751 3.96461
1 6.23843 5.1352 2.00153
1 11.935 5.06554 0.625282
1 2.89324 2.7815 3.8546
1 4.83123 7.61575 5.51149
1 4.61589 7.27982 0.880342
1 10.3883 11.3804 10.1204
1 2.56281 4.64174 12.9275
1 2.80978 3.0619 13.2877
1 11.9818 0.140123 2.07553
1 9.42014 1.07276 10.026
1 5.16755 10.7353 4.62984
1 3.7977 0.032829 6.54102
1 4.36912 5.86714 11.8554
1 10.2284 0.68329 8.95477
1 9.18869 9.66507 1.28002
1 1.50853 6.63652 13.3473
1 4.41199 6.71387 2.90922
1 12.4497 0.268891 0.605862
1 12.6378 1.81741 3.75988
1 11.4106 5.45265 7.4719
1 8.99586 6.79629 11.0916
1 11.5316 4.14063 10.3965
1 7.17404 1.20522 3.18684
1 7.92814 7.26337 5.49523
1 3.89255 4.7379 0.614715
1 1.83971 11.4133 0.94283
1 2.15733 0.24667 13.1685
1 7.37256 10.6797 4.83678
1 12.3326 11.551 8.1906
1 4.71806 3.49854 5.48852
1 0.0352029 3.82978 13.2978
1 1.65116 11.8065 5.16159
1 6.87987 5.10075 10.3949
1 2.46621 6.59751 5.01445
1 9.25774 9.14557 2.32014
1 9.76079 0.406694 5.51637
1 1.133 10.159 1.82343
1 10.7879 0.486133 2.74846
1 1.40109 4.65383 10.468
1 9.85264 11.2955 11.1105
1 1.88639 8.6237 8.11781
1 2.64175 11.8975 11.037
1 2.02023 9.63639 4.82348
1 2.35935 0.450224 3.13851
1 9.19506 11.2196 8.12767
1 11.2298 6.53899 3.38384
1 12.9918 5.57715 1.2786
1 10.4795 8.65902 2.29149
1 5.58447 11.125 0.0485664
1 2.91853 6.08346 8.06925
1 3.40961 10.9149 11.5147
1 6.17142 7.22942 12.9657
1 12.3651 3.98901 0.46532
1 7.18625 13.2133 9.91879
1 11.8154 7.56498 7.0708
1 7.05622 2.32606 7.05646
1 7.74134 2.11773 5.2225
1 10.8001 11.1639 6.7662
1 5.75494 4.06657 2.26897
1 3.72996 3.95771 13.2429
1 9.89419 3.03462 12.4996
1 13.0677 12.0623 13.3602
1 11.4154 10.2262 11.0174
1 7.82695 6.20782 1.53478
1 4.31627 3.82476 10.0504
1 11.4559 9.54516 6.86819
1 1.9202 2.52543 2.5896
1 12.3977 10.4753 10.6594
1 10.1758 9.45626 12.5238
1 3.05506 9.15168 3.92967
1 11.0592 10.1464 11.9867
1 12.3267 10.9597 13.0423
1 9.96206 5.60213 7.94219
1 2.93628 0.0137345 7.48484
1 9.02094 0.6357 3.01511
1 2.45016 1.24132 6.19542
1 5.04442 11.4748 3.56736
1 12.3583 7.42554 11.8378
1 1.77482 5.95948 6.78057
1 10.8739 11.2384 0.351428
1 11.4326 3.75193 6.52002
1 11.1405 6.2599 0.875588
1 8.35247 1.30382 1.67333
1 5.08457 10.2194 8.75933
1 7.68768 2.19651 9.02069
1 1.58349 11.1157 12.3129
1 6.31489 4.32596 8.59258
1 8.43928 8.39171 8.9386
1 4.01256 1.90058 5.42471
1 7.41736 5.49856 3.74388
1 3.99904 5.73225 2.7452
1 9.55162 2.76118 9.414
1 2.33273 9.46349 8.25806
1 7.90148 4.5002 5.65959
1 9.21018 5.51119 0.287669
1 12.5176 5.80901 9.94832
1 9.69598 2.23423 2.90267
1 10.3371 9.19609 8.68337
1 11.3521 13.1217 7.37548
1 0.744804 2.6095 8.03442
1 8.43547 2.23864 11.0848
1 11.0348 7.01333 10.9004
1 6.28777 4.39303 5.15583
1 1.99488 4.24844 4.67
1 9.47842 3.2678 7.59571
1 7.20702 4.91908 4.81577
1 13.3211 9.97447 4.74757
1 13.2744 0.218485 5.06301
1 7.68791 6.2365 12.3247
1 9.8034 11.2489 3.64206
1 7.28756 0.359161 12.0385
1 12.6348 10.9477 2.81701
1 9.90561 4.45903 5.39887
1 12.8159 3.99082 4.04771
1 4.00472 12.9829 1.43814
1 3.72888 4.0639 6.17344
1 6.88849 4.12691 6.61955
1 8.2255 8.93388 8.18462
1 3.81903 0.721237 5.18921
1 8.75237 3.02869 4.59358
1 10.5053 2.52334 8.99993
1 7.06062 0.693765 4.8024
1 5.93451 11.0128 2.97331
1 3.43903 2.37156 13.1011
1 5.03843 3.33597 9.5916
1 9.17127 6.71294 7.43949
1 0.42839 4.45689 7.84139
1 11.1678 9.1981 10.974
1 1.45588 0.559243 0.633553
1 3.60667 2.50297 9.51446
1 10.4115 1.85646 8.25454
1 4.36717 13.2904 3.7943
1 10.5247 7.57942 8.66295
1 13.0928 9.00742 7.8377
1 12.6364 4.38522 1.57974
1 4.67953 1.0904 8.56174
1 6.4241 2.05159 3.33909
1 13.1141 4.73405 0.650399
1 0.445756 7.51758 1.20948
1 11.2503 12.5565 1.86015
1 9.5034 1.95755 10.3435
1 3.12008 6.54397 2.5776
1 12.5417 11.6063 12.2735
1 11.0063 4.46716 4.82513
1 6.84188 9.38945 3.09801
1 13.4016 11.6185 11.0766
1 7.76365 7.2263 2.10801
1 9.59321 8.72021 12.2066
1 12.5052 4.86504 6.17244
1 0.51915 10.8259 8.27405
1 1.35088 6.00981 3.69011
1 12.267 2.46564 12.8097
1 2.30257 5.37224 10.5944
1 0.357482 12.2478 6.4297
1 6.31293 3.14934 13.3157
1 1.06982 13.0904 6.72186
1 12.3674 12.8821 10.0451
1 12.3252 12.4313 0.418167
1 6.05424 1.07224 12.1441
1 1.20509 1.59059 9.24576
1 4.75185 5.71264 7.0295
1 1.55094 3.23811 3.49595
1 6.80072 5.81897 1.35904
1 8.09533 10.9117 7.42281
1 12.184 3.44022 4.53472
1 12.1899 7.101 12.824
1 8.16076 11.3278 13.3734
1 8.48408 2.05519 4.20487
1 10.9632 0.233392 8.09383
1 2.26836 4.48869 9.88868
1 4.60352 8.36831 2.88338
1 1.90128 2.72891 7.921
1 2.2831 10.4243 5.3245
1 7.21088 7.92926 1.7279
1 1.69692 11.0595 5.92463
1 6.6938 11.0326 6.61988
1 0.0203795 11.2916 0.525163
1 4.42467 4.40398 4.02426
1 8.54583 10.6713 4.56787
1 5.50926 2.42317 1.26815
1 10.1329 3.51724 2.71525
1 2.15594 1.61095 4.26299
1 10.1903 6.75257 0.932058
1 12.2299 4.98175 10.0463
1 5.10175 5.22559 4.25487
1 12.6392 11.1018 6.9006
1 8.91422 8.36461 5.96233
1 5.20973 9.51399 5.31525
1 1.51188 5.86465 10.2531
1 12.2437 10.2098 0.33077
1 12.762 11.0075 5.9429
1 1.48313 10.2177 8.82892
1 4.09848 2.35405 7.58339
1 10.4298 2.03422 3.68249
1 6.92989 9.11131 0.364858
1 0.55887 2.03905 11.8133
1 9.52851 4.05459 0.0243104
1 2.43763 8.91032 10.4771
1 0.410497 3.56101 8.33766
1 0.11206 2.06399 4.58873
1 10.9819 3.6841 11.7746
1 11.9497 9.87772 7.68112
1 12.083 4.83094 3.44808
1 3.04957 11.9159 1.46852
1 8.47429 1.88149 8.20223
1 11.9425 13.3591 9.25797
1 1.89873 13.2398 2.52714
1 13.2935 12.753 11.5796
1 11.2023 9.92165 5.8932
1 8.49472 12.0526 10.253
1 10.0391 12.6431 2.27802
1 8.81728 8.77877 1.53113
1 10.3043 8.96723 11.5013
1 0.882341 10.3021 12.3293
1 5.22671 1.07263 7.75873
1 0.691095 7.57042 4.61252
1 7.39887 12.9419 6.41847
1 12.6028 1.48151 4.76668
1 2.02547 5.63287 7.67458
1 10.1148 2.49117 4.93678
1 5.74986 4.67316 7.94654
1 1.8139 4.51913 3.66601
1 5.2339 10.9062 6.59468
1 1.24115 2.80112 7.04826
1 10.2701 2.59763 10.3538
1 12.851 9.13197 5.46067
1 12.5559 6.88557 10.9716
1 1.66025 13.1352 11.9916
1 3.32135 8.30605 11.0737
1 11.6675 12.415 8.13816
1 11.9339 10.6892 11.7656
1 9.40304 10.1986 8.65429
1 13.0411 1.88666 5.98319
1 7.78128 11.2728 8.27314
1 8.78161 13.013 0.649628
1 2.9733 11.8115 8.61404
1 2.7382 4.66986 4.00297
1 0.0499182 0.718973 0.629987
1 5.02125 8.92032 8.86872
1 3.21694 12.377 2.28066
1 6.71125 11.8571 3.13833
1 5.0322 5.57841 8.03482
1 8.61575 9.61024 6.83823
1 5.50854 7.59636 8.66403
1 7.35992 1.82667 6.31003
1 12.2181 1.19346 1.96801
1 9.86276 4.55477 8.75141
1 8.10752 11.3404 11.9731
1 2.69871 4.43107 1.94276
1 10.2187 8.75014 7.30057
1 12.864 7.47846 9.79431
1 2.50155 10.1041 10.1838
1 6.05546 12.0798 12.1779
1 7.94287 3.30678 2.28925
1 6.80443 7.42107 7.19983
1 1.46035 7.36399 0.638608
1 6.40065 12.8889 0.204181
1 2.79861 6.68425 10.0417
1 8.34879 4.14625 9.45126
1 0.769846 5.60881 12.6679
1 2.1542 2.43554 10.2872
1 12.8828 10.7956 4.14119
1 3.96188 11.1194 0.39653
1 10.182 13.0758 8.36015
1 4.63893 0.781451 9.76463
1 2.35433 7.35182 3.61775
1 2.66565 12.6936 10.287
1 9.03298 1.59788 12.0777
1 9.32556 10.4259 3.38358
1 13.0737 6.23865 6.8554
1 10.9383 1.19793 7.80257
1 2.33011 8.87705 11.6398
1 2.78217 3.0632 7.50521
1 12.1789 11.8968 6.42535
1 8.06634 5.63051 5.64444
1 10.1631 4.82909 0.933078
1 1.79645 4.76511 11.5452
1 11.1539 12.9881 9.20604
1 10.0139 11.1853 4.88882
1 1.79097 0.442518 7.96037
1 9.89881 1.18213 6.1085
1 10.1285 0.957771 1.05201
1 12.4573 5.8569 5.23569
1 1.84987 2.3536 12.1701
1 11.5936 12.6949 4.2313
1 1.74603 1.31165 10.0907
1 11.642 1.13715 4.57326
1 4.68422 4.24744 0.0916201
1 10.3223 13.3916 6.31301
1 0.180108 3.23347 4.93072
1 1.16869 8.4522 0.581152
1 3.08465 13.29 5.03928
1 0.367201 9.87184 7.96541
1 7.93539 11.538 1.54647
1 2.46232 12.2926 2.8727
1 9.09515 0.319705 6.37078
1 7.04369 10.1951 6.07551
1 0.295538 5.94746 5.77632
1 7.40342 2.79306 1.66806
1 10.4235 2.79083 6.91458
1 13.1237 7.36016 6.44079
1 12.6622 3.41584 11.4901
1 2.49163 7.04603 6.05432
1 9.96377 13.0426 11.8613
1 12.8831 2.36598 11.1911
1 10.4325 12.6925 9.73158
1 0.269951 0.206069 11.3258
1 6.75673 10.9638 13.2344
1 2.78111 3.71149 4.89685
1 6.70336 11.2094 11.6502
1 3.92267 9.4152 5.85025
1 0.0667037 11.1044 7.38949
1 12.9165 11.8065 9.57121
1 6.2325 8.27222 12.6086
1 13.025 7.01959 4.59242
1 11.2694 10.3298 12.8678
1 12.4736 11.8034 11.0439
1 6.11255 6.30574 1.75613
1 7.07003 9.81323 1.54199
1 7.40144 7.73001 3.02735
1 3.58522 0.11736 12.8751
1 10.4491 9.65893 7.78456
1 10.3187 5.79072 2.95645
1 2.37452 7.37526 0.951841
1 9.6579 12.7781 0.390078
1 5.72122 10.5386 9.64495
1 5.91727 5.79069 9.19082
1 9.22606 8.96371 11.2672
1 3.82784 8.98745 8.25254
1 9.045 7.10829 12.6101
1 4.33502 4.68957 5.22835
1 9.78766 2.32196 11.933
1 3.06352 8.19308 3.65263
1 2.39848 3.34342 2.12859
1 6.02576 0.60473 8.24333
1 4.71709 11.6194 0.813607
1 1.92485 2.86319 1.37005
1 5.35907 7.93003 0.359452
1 11.4668 1.0042 11.9381
1 7.49068 2.94329 3.45374
1 8.06012 12.717 5.24868
1 0.0181577 8.30743 9.14923
1 4.55002 8.01886 6.67695
1 7.98302 9.24274 6.1766
1 1.40941 5.10414 9.41416
1 4.73068 8.68642 5.83988
1 12.0395 6.28332 12.3202
1 13.2242 10.1316 13.2735
1 0.0762502 9.09631 11.2943
1 6.46678 7.07189 4.61975
1 5.68392 8.90187 5.84969
1 11.9795 4.22834 12.1596
1 5.68236 11.6189 4.40147
1 6.21143 7.72707 0.692584
1 12.3618 7.64261 1.67776
1 11.5287 10.5988 2.82767
1 7.31182 0.741368 6.76714
1 5.82709 9.44649 8.47039
1 2.28195 7.88544 11.9754
1 3.36879 5.64596 1.51454
1 2.95614 8.46744 7.39501
1 10.8752 9.77774 4.7808
1 5.32433 11.3525 12.1528
1 9.64922 3.22452 8.62079
1 2.02455 11.1472 6.77737
1 11.6549 11.2773 7.44995
1 7.6386 12.4893 3.04128
1 6.16868 7.67053 7.96943
1 0.995438 4.89333 0.960766
1 11.2789 3.71151 5.42868
1 7.38011 3.53588 10.3804
1 7.47078 4.43754 0.65213
1 8.71162 7.68 6.64561
1 0.759468 7.06019 8.16211
1 2.94918 8.09271 8.29674
1 3.73113 7.23132 1.11859
1 4.53063 2.63123 3.7974
1 13.0459 0.970069 9.65883
1 0.851601 13.1427 2.01523
1 4.14234 11.9138 11.7192
1 7.40708 10.2626 0.160753
1 11.074 3.85274 7.57142
1 7.50643 0.648285 3.82479
1 7.92285 10.0776 5.67673
1 11.5452 11.775 11.558
1 9.35758 9.35128 3.40194
1 6.64387 4.85308 7.28766
1 0.874677 6.64767 10.9724
1 0.000529157 4.12833 5.11847
1 11.095 4.54428 12.8111
1 8.78879 0.685379 10.7549
1 9.24177 6.17406 8.27447
1 11.2175 5.78242 2.07939
1 4.1043 12.5509 10.4641
1 10.9891 5.52123 5.07364
1 0.999757 2.07192 10.0722
1 9.17637 5.26245 8.98983
1 7.18504 11.4577 0.690993
1 0.248807 4.87112 11.1125
1 8.70027 6.52308 2.22665
1 6.23567 12.3609 3.93039
1 11.0984 5.04766 1.40649
1 13.0829 6.77383 2.05702
1 3.76055 9.75173 4.19165
1 10.9187 1.7036 4.67964
1 12.6903 6.7037 0.161668
1 11.7391 2.96877 12.0076
1 6.6588 1.71687 12.5685
1 7.0379 6.91676 11.5756
1 7.83951 1.15033 0.830688
1 5.60735 11.1091 11.1701
1 1.92912 3.42358 11.693
1 4.61345 6.05689 9.88045
1 10.0756 9.587 0.416442
1 0.297652 8.58005 5.11058
1 6.04621 6.72998 8.48124
1 9.72765 4.41485 10.7932
1 10.686 6.93923 4.79063
1 3.51347 10.9546 8.15809
1 4.70436 9.40748 7.27138
1 4.30948 0.357155 12.3447
1 9.85027 3.49224 0.908179
1 2.21978 11.3115 2.35949
1 8.3733 12.0942 12.4844
1 5.5781 7.81627 4.27431
1 12.3034 8.49048 11.3836
1 5.02543 8.90193 2.23607
1 12.777 1.7634 12.0423
1 5.48665 7.74737 2.52885
1 2.55144 5.49705 5.07369
1 5.32375 10.1941 7.22617
1 10.2639 9.15508 4.36639
1 5.57395 5.40088 5.20241
1 10.9121 11.7841 5.17808
1 13.1967 12.9788 7.93416
1 5.7741 8.36004 10.5291
1 1.42915 4.08443 2.28064
1 4.68506 7.93567 8.04846
1 6.3801 9.62685 6.84691
1 9.2315 0.572224 12.1546
1 3.92519 6.40519 2.0473
1 11.4264 3.86867 0.00768365
1 0.769223 10.2568 7.2662
1 6.38165 4.65984 9.81442
1 1.9274 2.22609 5.72638
1 1.91373 3.82366 1.11967
1 0.718802 7.18353 6.79461
1 12.3828 5.13025 7.09415
1 12.9446 2.57011 3.11082
1 8.4412 8.0982 12.2481
1 2.87951 3.90361 0.35282
1 8.89956 12.703 1.72391
1 12.4179 6.80018 6.19722
1 11.5478 1.01497 10.6395
1 13.3549 8.29137 6.41579
1 1.01383 10.8334 5.04706
1 4.85246 8.39312 1.27198
1 1.49253 8.12593 10.8059
1 5.72931 4.53106 1.31214
1 2.10692 4.71795 6.79436
1 9.06706 1.9168 2.08078
1 8.02153 1.27865 2.56755
1 7.96623 3.90366 11.6136
1 13.1629 11.8523 4.68835
1 10.8283 6.71185 8.90756
1 1.70611 4.50577 0.356625
1 2.68983 7.62606 10.4577
1 0.591842 13.1712 8.775
1 0.428704 12.9685 12.8988
1 0.0171437 6.48158 0.995027
1 12.4082 3.09088 2.1456
1 3.63293 5.86574 4.65247
1 12.5133 7.86675 7.71748
1 10.3498 12.0048 9.04193
1 3.05892 0.851132 8.76938
1 6.01114 8.706 11.7365
1 7.02387 11.8391 4.86508
1 2.93459 11.7209 0.461097
1 7.63826 2.83267 6.27834
1 4.30182 10.0623 5.2163
1 13.0662 11.9746 7.1157
1 12.4739 12.7285 4.83208
1 5.04096 9.7263 11.5077
1 9.83471 7.30272 7.94444
1 8.19312 5.34225 8.39331
1 3.28247 1.68261 7.75905
1 10.5642 11.518 12.1374
1 3.57338 3.07196 11.9521
1 3.24571 11.9435 9.83675
1 8.11254 6.78026 7.24289
1 2.01993 7.28233 9.52744
1 9.69088 3.81776 11.4881
1 2.94153 12.9664 12.343
1 4.79519 6.61946 5.6487
1 0.101949 5.19591 3.55023
1 0.00271509 12.9349 4.39547
1 11.5775 7.44752 9.81996
1 3.32618 10.3663 10.1069
1 1.03809 4.06046 11.4165
1 4.74467 13.3307 10.1466
1 6.00456 0.0578662 11.9977
1 4.46429 1.67559 10.3629
1 4.97029 11.5876 10.3268
1 6.70587 2.0493 9.12029
1 8.50949 6.92874 0.671945
1 5.60026 1.50048 1.5247
1 1.2893 5.54846 11.1803
1 5.93157 5.76314 10.9813
1 8.14095 12.7147 11.0447
1 10.2786 0.877648 13.1782
1 1.38655 6.65485 7.48575
1 0.894809 13.1236 0.386395
1 9.5232 0.305634 11.2004
1 2.50807 4.83724 8.99813
1 13.3122 12.2018 1.00293
1 13.2728 3.76122 2.41624
1 7.19242 1.92434 0.323719
1 0.213884 5.30801 6.53141
1 9.37522 7.05873 0.438522
1 12.762 5.43107 9.0048
1 9.55552 7.19791 2.28179
1 6.203 12.3975 5.55186
1 1.43508 5.29079 5.58165
1 0.594333 9.44858 10.3315
1 3.73017 11.1084 1.38287
1 9.83905 3.84104 4.62646
1 3.26778 9.96249 11.8643
1 6.3544 5.87725 7.03639
1 7.82421 9.7819 8.13292
1 3.53216 2.13289 3.48111
1 8.08645 9.05977 9.62056
1 3.2197 12.8051 6.08154
1 4.61556 0.7417 5.91104
1 8.93821 8.65966 3.85708
1 3.37121 8.51261 10.1447
1 2.78801 13.3797 2.37055
1 5.70841 12.798 12.8326
1 11.1717 7.1532 0.352384
1 9.0375 10.7171 7.07222
1 12.1089 9.50487 0.898327
1 13.2384 7.54734 12.83
1 4.798 9.86276 4.31938
1 9.79915 1.09685 2.37916
1 11.0401 5.24556 11.9007
1 2.11711 9.61292 1.63222
1 11.1002 3.6449 1.96959
1 12.2188 2.93139 6.64267
1 10.7998 10.9152 5.88535
1 12.3119 0.367938 3.93887
1 5.69306 2.42398 2.44448
1 5.77992 6.57458 10.2734
1 0.844651 4.19205 6.77635
1 6.85914 12.4377 9.05824
1 13.2757 1.15445 11.2885
1 10.1781 9.19931 1.43062
1 12.5172 8.21671 5.36661
1 7.98419 4.85479 6.56799
1 7.40846 6.84181 6.44406
1 11.5579 10.3409 9.92266
1 11.9955 6.80316 2.50317
1 0.471325 0.928763 1.9258
1 3.20563 1.42006 2.69739
1 9.67053 6.52031 3.44184
1 4.82694 5.55757 0.18424
1 7.37627 12.2457 10.6066
1 10.0349 5.03714 4.52148
1 1.28018 6.11566 0.732911
1 4.62312 12.8901 6.48901
1 2.45901 3.03207 8.68242
1 3.78547 10.2293 10.945
1 6.02242 3.17126 10.8197
1 4.26606 1.21624 2.59729
1 9.82768 8.46054 3.42773
1 2.13859 5.33151 1.19184
1 12.7531 8.13153 10.4657
1 8.99822 12.1045 13.3302
1 6.24107 6.7248 11.12
1 8.47077 6.83484 9.10541
1 0.225931 2.54766 7.16862
1 1.29458 8.44625 5.76899
1 7.09969 13.1467 11.0699
1 0.501687 13.1136 3.47455
1 4.29574 10.8587 6.75493
1 0.475603 1.94673 0.105055
1 3.88599 4.19896 3.01592
1 3.34619 8.8662 0.167526
1 11.6004 3.38588 11.0276
1 1.27277 10.5316 11.5185
1 0.689088 10.4725 10.6361
1 4.97651 5.9003 3.50006
1 7.28376 6.91943 10.1371
1 10.24 9.72317 9.54479
1 1.97797 12.4229 1.2404
1 9.85368 5.55306 5.33543
1 2.13659 12.9491 5.64796
1 7.79635 9.77493 4.68807
1 8.29868 6.03011 0.61408
1 10.6932 12.7825 5.31088
1 11.4918 2.24148 3.89494
1 8.69654 7.16154 2.87288
1 4.88322 0.211067 11.1114
1 1.38828 6.82855 4.66341
1 8.26628 6.28715 8.20748
1 10.4799 11.747 2.05608
1 12.8976 13.0293 12.5595
1 0.761012 5.60771 7.54334
1 0.112213 13.1415 6.95262
1 0.515206 1.56655 0.993682
1 7.92445 8.43133 13.1806
1 10.3035 12.8319 10.7209
1 5.94572 0.947956 4.67894
1 12.143 9.82522 12.5931
1 8.13268 9.51473 13.1512
1 6.88744 11.2509 7.51786
1 5.16497 0.793917 0.716335
1 6.7264 3.21583 8.97113
1 3.77303 8.36197 5.88712
1 8.38499 8.90563 0.440347
1 6.93265 10.7177 8.52549
1 6.57635 1.1285 6.37209
1 9.07889 9.12633 12.954
1 0.136833 10.506 2.37284
1 3.60041 12.0755 7.24373
1 13.1627 9.78413 10.7207
1 9.37338 10.641 5.41564
1 4.90603 6.22184 1.13057
1 11.8349 10.8249 0.937913
1 7.76075 5.02647 11.4908
1 5.10501 3.73278 4.09466
1 6.04106 7.80283 11.3994
1 12.9541 5.07732 13.1105
1 2.46818 10.8617 9.42815
1 2.99667 9.64394 11.0523
1 7.0981 3.91145 4.21908
1 11.5486 4.56781 11.3027
1 10.2716 9.81421 6.71342
1 6.27284 11.0656 0.769405
1 3.15215 7.92626 1.74832
1 6.74827 2.7439 5.61932
1 6.26581 4.56294 3.02815
1 12.7157 0.863743 13.3652
1 10.2497 10.2596 5.43543
1 7.12229 1.26034 8.48602
1 11.0148 2.02024 10.7058
1 9.99859 6.28239 7.07819
1 1.82745 9.99898 7.3288
1 8.37109 7.68816 9.64371
1 4.4358 7.12921 11.8659
1 3.89164 3.11328 1.75149
1 3.78061 10.9203 5.79119
1 9.32082 0.183054 3.82155
1 5.04824 2.90947 11.2265
1 6.36789 12.8336 6.51992
1 5.37504 11.0359 8.28933
1 3.53906 10.6524 12.519
1 0.646925 6.95165 3.66565
1 11.5332 7.16077 4.28236
1 1.75418 9.4943 5.70987
1 12.4228 2.83983 8.57944
1 5.07059 12.6954 1.18783
1 9.0555 11.1451 0.345303
1 3.51754 2.59124 1.09916
1 5.16058 13.055 2.26865
1 2.69562 0.860507 4.58288
1 6.93519 0.175118 5.8683
1 11.0996 11.0005 4.52952
1 3.35758 4.01481 1.21646
1 5.57349 5.61374 1.34769
1 4.70693 10.5107 1.72306
1 2.89479 4.98743 8.15433
1 11.2748 8.02351 9.06353
1 0.00760156 1.79946 1.78063
1 2.60966 11.5018 12.4278
1 1.69157 2.64455 9.23662
1 2.57796 2.93588 11.1807
1 4.02552 1.03222 7.72194
1 1.81123 3.28428 5.49879
1 5.18532 12.1148 8.69088
1 6.09399 3.33766 9.70713
1 7.18814 8.60848 5.87529
1 9.38666 10.3292 6.34316
1 3.28622 9.91018 8.13561
1 8.23482 9.11677 2.49076
1 10.7183 4.78028 10.664
1 13.0293 1.61302 7.47609
1 11.3987 9.36504 13.0098
1 7.99832 1.07195 8.71702
1 0.360404 5.41118 0.322097
1 9.16221 9.72467 5.53044
1 7.56736 11.3685 3.28208
1 5.22182 7.81595 12.7812
1 0.844163 6.12659 6.64505
1 10.6357 5.27279 3.6562
1 9.73142 1.39058 3.40163
1 4.67845 11.4102 2.55932
1 9.75112 8.25019 6.58664
1 8.4266 0.314917 2.16119
1 6.95153 8.80558 8.36497
1 4.01004 10.7295 2.41821
1 3.00078 3.78056 8.20017
1 9.3494 4.02206 3.62159
1 7.75557 8.02974 6.3969
1 11.3571 9.15504 4.29712
1 8.01948 6.65963 4.52006
1 0.212907 1.20684 5.04313
1 6.79341 8.94979 4.19249
1 1.58069 1.31668 7.45928
1 8.60931 9.34242 10.5356
1 2.40241 6.41241 3.87047
1 6.17032 7.17618 6.30505
1 13.3714 7.04191 7.44381
1 12.8089 5.46722 11.4165
1 5.99009 6.10742 4.50887
1 9.316 2.23873 7.3965
1 5.5817 12.8001 11.1588
1 9.18969 12.9218 5.65264
1 9.35486 7.74749 11.6505
1 4.27248 1.59078 3.8966
1 10.7068 8.02413 3.00346
1 5.95625 0.441148 7.36783
1 12.1309 10.5139 8.39606
1 2.22776 8.93285 12.7783
1 12.3079 7.94094 4.14834
1 8.77199 10.7434 12.834
1 5.36898 12.8758 8.09084
1 7.91501 4.22721 2.66712
1 7.71806 12.8376 12.5986
1 3.94882 5.89578 8.95605
1 10.2546 1.80845 7.29308
1 11.2521 1.53036 12.9625
1 9.43902 1.89916 4.24067
1 11.8613 8.90664 12.1139
1 7.3562 11.4242 12.6262
1 3.18167 9.06755 1.48793
1 11.8042 3.33413 3.44377
1 8.3374 5.08888 3.10227
1 11.996 9.22199 6.17349
1 9.77107 12.1216 5.27231
1 12.5596 8.68504 7.07961
1 8.43131 0.417828 0.347186
1 7.74189 11.29 10.9632
1 9.48016 8.15671 1.0047
1 12.8027 12.3535 5.83194
1 11.6625 12.3855 10.805
1 12.9293 0.666537 2.20652
1 8.70224 2.03988 9.43329
1 9.11613 2.98897 1.9077
1 6.53216 10.4897 2.37317
1 0.0909952 5.26153 10.2375
1 5.54244 10.0321 2.70551
1 10.2365 5.73263 0.330781
1 11.175 7.8774 13.1094
1 10.2897 4.18029 1.61795
1 2.24712 8.61537 4.53496
1 11.2734 0.140903 5.98009
1 4.37623 10.5221 3.66574
1 10.3147 7.57287 1.4511
1 8.45649 2.90631 8.47205
1 13.1731 0.619312 8.08976
1 3.73562 1.15853 0.725882
1 9.56843 6.20557 10.6144
1 1.6917 10.8907 7.78379
1 7.30285 9.17934 12.3608
1 5.34816 10.4154 3.6537
1 3.92903 1.91214 11.2785
1 6.49895 2.03084 1.46379
1 1.93733 9.9241 10.9428
1 9.34659 12.0219 6.23333
1 3.79573 12.496 0.253616
1 12.6782 7.60171 2.65311
1 2.35633 8.77148 6.21961
1 2.90905 1.04724 9.80362
1 6.89464 1.42661 5.4672
1 2.32125 10.3359 2.54127
1 5.0807 12.5013 5.63879
1 6.00111 11.9089 7.36627
1 7.41185 9.90256 9.05492
1 2.7249 2.17313 7.13639
1 6.00103 9.55297 3.51189
1 8.19959 10.4876 10.3727
1 3.8641 7.81403 8.66187
1 5.94429 1.64128 5.4971
1 8.77262 10.0278 0.366641
1 9.86866 10.173 4.39661
1 4.65373 11.4963 5.39403
1 12.5788 6.88852 7.95912
1 1.65807 6.9468 6.59426
1 5.58205 9.21198 0.818174
1 8.15881 5.04802 12.3773
1 6.80304 1.06401 0.920371
1 2.25439 7.04429 7.55798
1 10.4012 0.886514 4.20251
1 8.40793 0.625844 9.85493
1 0.992324 11.6599 10.335
1 1.46352 10.4933 3.05149
1 6.6217 7.66819 10.4296
1 13.1211 5.19855 7.61199
1 9.77577 12.1777 8.22686
1 13.2876 6.52835 9.60699
1 7.42447 10.8735 2.21547
1 7.04216 8.51204 11.4925
1 2.90126 11.2052 5.14749
1 7.07688 1.48894 10.5
1 2.84343 1.88976 11.4014
1 5.8754 1.66006 8.55811
1 1.99313 6.47046 2.89036
1 9.23398 0.787656 4.63399
1 6.88755 12.9592 3.25229
1 4.14088 2.82845 2.93136
1 9.5926 12.3689 12.6058
1 0.403943 5.04355 1.62504
1 10.4732 9.82489 2.57
1 0.667441 12.2589 1.98865
1 12.8168 1.88229 0.113818
1 11.2261 13.0932 10.2669
1 2.11387 7.4884 2.39852
1 0.186787 11.3062 6.29278
1 11.9421 3.28959 7.75876
1 13.0546 10.7282 11.4815
1 9.37727 0.15632 9.26954
1 8.78801 6.49227 3.77865
1 12.1435 12.5666 11.994
1 3.44346 7.70007 2.5752
1 11.0201 3.50904 2.95556
1 5.48399 7.07711 12.2114
1 0.973369 1.31603 11.1418
1 11.1652 10.348 7.33078
1 7.35332 9.9043 10.3436
1 0.978212 8.44463 3.7834
1 6.53012 10.0789 9.37026
1 8.44104 10.8429 3.28409
1 3.47501 6.7273 11.6694
1 7.90635 3.05203 9.41582
1 13.2509 4.49421 6.95231
1 9.81435 11.281 7.19108
1 5.36079 1.77503 0.564451
1 3.03002 4.15949 10.5939
1 7.3413 5.73357 6.51466
1 9.11616 10.0094 2.49771
1 7.75577 0.837851 5.87428
1 8.78248 12.1363 8.28515
1 2.36704 9.4778 0.205824
1 0.350201 2.64368 1.40414
1 12.3844 12.567 3.65377
1 11.7297 6.16472 0.10839
1 0.510198 4.59968 2.83493
1 6.60883 5.00313 0.642993
1 3.54642 11.6158 3.07251
1 7.14456 12.4759 0.919531
1 4.10032 1.37912 6.40815
1 3.93902 3.36007 7.75071
1 4.07854 3.5009 3.62556
1 9.35785 4.95579 3.62447
1 1.5074 6.21829 8.92317
1 13.1931 1.5597 8.73
1 7.31503 8.11732 12.3378
1 10.2519 4.70598 11.912
1 7.9285 5.55643 4.67897
1 8.87301 9.35267 8.93491
1 6.48611 3.54014 12.3495
1 3.86766 5.77748 3.63939
1 8.11992 12.1938 0.373047
1 6.66641 5.0162 11.3711
1 13.2891 4.89763 4.4499
1 3.69875 4.93903 4.05002
1 0.898409 9.79798 4.72802
1 7.08607 7.18231 12.7678
1 1.79507 10.8881 13.3291
1 1.537 11.6925 11.2601
1 13.3067 2.90536 11.9371
1 0.858951 4.39843 9.35906
1 3.8148 8.8994 5.01664
1 10.9311 1.42781 2.79096
1 4.57737 4.10465 2.27085
1 6.36285 3.29492 6.34523
1 11.8577 2.29639 2.98111
1 5.25995 0.512258 4.15542
1 7.67741 0.405663 10.4061
1 6.06596 13.0646 8.75372
1 10.7355 6.32628 5.63341
1 2.59427 8.55822 9.24449
1 5.53567 1.62354 10.2408
1 3.85862 10.1165 7.30717
1 3.7766 7.63332 7.49556
1 2.92876 6.02127 13.0415
1 8.02161 8.2666 4.20757
1 12.6988 5.48503 4.10196
1 8.78548 10.7023 1.39346
1 10.0004 12.3438 7.23812
1 6.41063 4.82424 4.25003
1 3.0995 11.4626 6.57509
1 2.61453 12.6298 0.341232
1 0.478955 2.3943 2.59968
1 1.25732 9.17521 7.5937
1 3.10651 2.72271 5.24738
1 6.23894 1.03859 9.6917
1 3.81044 5.55126 0.0604981
1 5.03341 3.29141 2.01652
1 10.3199 9.88514 3.51673
1 7.0613 2.38146 4.17138
1 4.86495 11.6432 7.2797
1 11.9297 2.03285 1.33602
1 8.46409 13.2266 3.48633
1 0.765908 4.76179 13.2215
1 2.4745 3.36548 10.1325
1 1.46452 4.83322 7.54904
1 3.96892 5.15415 6.34271
1 10.3322 0.493611 11.797
1 9.91844 11.3142 5.92748
1 4.87144 7.33295 10.8458
1 1.18969 12.5209 3.11031
1 9.67629 10.0893 7.45265
1 5.70645 5.71327 11.9225
1 1.49373 4.93401 1.88378
1 9.16551 11.6633 12.0507
1 11.9339 0.0216196 4.87014
1 12.456 12.7323 7.00926
1 7.28366 12.3102 11.5961
1 10.6484 12.0955 4.29823
1 10.9637 0.515549 9.72246
1 4.50649 9.92113 13.1727
1 8.75216 11.7898 1.07095
1 2.72937 1.15393 1.16602
1 2.75821 2.61107 12.3261
1 5.11915 1.85007 4.70568
1 2.48545 1.99843 8.82102
1 0.550518 8.40954 10.3174
1 11.0784 12.4463 0.803774
1 4.88777 1.66414 5.82472
1 3.98171 8.62806 3.95311
1 3.98277 3.03778 5.12169
1 5.21133 11.9989 1.96495
1 2.93896 6.02861 7.07713
1 3.14894 11.0114 2.13675
1 7.50956 1.79877 1.44874
1 2.81281 1.00904 7.04615
1 12.8181 4.31402 8.50114
1 10.3993 12.1378 6.17295
1 3.94282 8.67955 9.20071
1 0.60316 2.37734 6.30047
1 10.3469 10.6261 13.0027
1 6.67082 3.62194 3.2907
1 13.1231 0.800083 4.16128
1 12.254 11.1251 9.13553
1 13.0016 9.19395 0.2715
1 12.8717 4.6679 12.0371
1 5.70447 3.72717 8.16817
1 4.04276 4.96195 2.01619
1 13.1935 6.14657 10.6008
1 9.45926 10.5293 10.5198
1 4.71762 2.3514 9.40425
1 6.20435 12.7731 9.7985
1 4.05696 12.6305 9.4045
1 5.29238 0.339131 12.6617
1 9.95316 1.35661 12.3884
1 0.388742 5.91513 11.5423
1 8.57988 5.85728 12.8563
1 3.12403 2.4902 2.47008
1 11.5448 2.03327 8.04165
1 8.05354 8.21065 2.27387
1 13.3032 1.66443 2.88977
1 8.94781 3.19678 11.6524
1 4.8939 2.1481 8.0912
1 1.90945 4.30925 8.47665
1 11.457 11.3913 12.6934
1 1.65833 11.9619 7.36682
1 5.373 8.75235 12.7767
1 11.1172 5.67832 12.7771
1 4.20151 7.80603 9.92754
1 8.82092 2.94399 2.98645
1 6.29247 8.28795 2.19328
1 8.73636 1.87388 2.95778
1 1.86315 1.2978 3.11681
1 5.68883 10.1089 6.33749
1 6.71343 6.53617 7.68819
1 12.3881 4.03082 6.67685
1 1.18678 11.5804 8.34334
1 4.79358 5.53594 10.7664
1 12.3221 9.87967 2.00579
1 0.658689 1.61713 7.97455
1 0.311507 7.53739 2.11973
1 0.489878 9.97562 11.4951
1 0.223343 5.72467 2.3639
1 8.73309 1.6708 0.163963
1 10.1294 13.3809 13.2128
1 0.519991 11.8365 11.9762
1 7.07759 12.2605 5.77323
1 10.9364 10.4133 1.94687
1 12.4471 8.27216 9.40593
1 0.866375 8.13475 8.18516
1 2.1669 13.3209 0.713202
1 8.58126 10.591 8.40753
1 4.07617 9.46699 12.3651
1 0.62526 2.4812 9.088
1 1.96701 2.97697 6.42519
1 12.3022 9.8294 4.30717
1 0.335702 2.93127 10.8134
1 4.8688 2.14886 2.04953
1 5.00061 7.04356 6.46375
1 11.4572 8.68957 5.59047
1 4.50997 0.909613 13.3434
1 8.75937 4.17508 6.42408
1 5.74723 10.3151 5.32799
1 0.215616 9.21934 2.04988
1 0.513212 9.91031 1.17975
1 3.61406 3.14971 10.6224
1 8.36582 9.20879 12.1846
1 13.3753 1.96081 9.54464
1 13.0939 6.35276 12.3881
1 0.0823341 10.945 5.08165
1 0.0940058 1.28376 12.725
1 12.3547 0.927071 3.03423
1 7.49425 12.7422 3.94154
1 0.617928 10.4732 0.269153
1 6.09633 1.87379 4.58702
1 5.10598 2.90767 13.221
1 10.1453 5.07116 9.50478
1 3.72835 9.98334 0.656926
1 4.75933 12.3847 3.16545
1 0.479165 7.3955 0.0364672
1 5.23281 8.56588 4.82335
1 0.300172 7.79625 3.30744
1 6.99161 6.07227 8.39959
1 3.06626 4.71242 2.95757
1 2.7308 2.0647 0.611962
1 3.1043 12.3077 4.59057
1 12.2649 5.46221 8.1835
1 2.55261 6.68779 8.78309
1 5.43476 9.82925 1.59108
1 9.22307 12.4602 11.2318
1 3.48689 5.31096 12.5586
1 11.6053 7.48711 8.09848
1 12.0911 7.78378 0.183826
1 8.9093 7.20435 5.65424
1 10.6881 3.5802 10.6676
1 1.01453 3.37903 1.76137
1 3.85223 12.5316 8.4376
1 11.0212 4.98918 0.363237
1 10.5834 1.64542 1.93198
1 11.2715 2.62282 13.301
1 8.10694 7.75537 7.46845
1 5.46034 13.3248 6.1933
1 12.1276 6.88608 1.03371
1 9.24059 3.90157 12.3412
1 10.1299 10.4973 0.670971
1 1.48014 0.20462 10.8188
1 1.08863 0.572398 9.89821
1 2.19438 10.6718 1.55532
1 7.33937 7.99728 4.92587
1 5.94128 0.947513 10.7929
1 6.59173 2.58435 10.3032
1 11.4105 9.38607 9.50186
1 5.49856 11.3747 9.35369
1 9.80851 11.158 1.53767
1 11.7229 5.37078 10.8338
1 1.0047 5.80882 1.78978
1 2.13167 5.44487 3.41481
1 2.37838 6.8066 11.4069
1 1.38311 2.22083 3.47296
1 2.94323 3.72922 12.5541
1 0.635965 11.8893 7.31395
1 1.39614 9.23363 6.63677
1 11.5399 1.26641 3.57841
1 6.05176 0.157148 1.2009
1 7.33075 4.55398 3.411
1 1.77092 12.6078 12.9603
1 13.3444 10.7959 1.2723
1 3.88846 12.7466 12.3813
1 4.94093 5.89555 2.35107