2048
Atoms. Timestep: 10000
1 3.63915 4.17504 10.9254
1 12.1714 12.1894 2.36696
1 1.22796 13.1589 1.64478
1 7.9053 3.82358 6.69265
1 5.82822 7.04975 6.1749
1 1.95399 7.67087 11.1421
1 10.9493 12.4728 11.0875
1 12.5269 8.23951 2.785
1 2.69784 3.33706 8.53434
1 8.15681 10.9193 2.14049
1 7.32853 11.6993 3.72033
1 8.14239 10.0898 4.31368
1 5.03827 0.0680964 11.9335
1 6.43194 7.09078 1.00004
1 11.1697 9.50326 6.05528
1 12.3394 9.73691 5.30034
1 5.18582 10.977 0.58428
1 11.9463 9.40319 10.4181
1 13.286 1.7685 8.74686
1 4.62938 10.3781 10.7595
1 10.4734 5.56105 8.03803
1 3.90922 5.1321 4.6696
1 2.1838 0.0428516 2.12041
1 7.85218 3.89259 0.250933
1 3.33981 9.21934 13.0699
1 0.611949 10.5303 3.21873
1 6.51762 1.39514 6.80472
1 7.94407 11.7205 4.50092
1 3.94669 5.07869 1.14489
1 1.20909 4.94589 3.64603
1 12.7146 2.20425 10.6635
1 6.45659 8.18501 10.5172
1 12.9317 5.18665 0.089722
1 9.10831 7.21772 13.2777
1 11.7256 9.71076 11.3435
1 12.9678 3.51372 12.5491
1 1.29448 11.3819 2.4985
1 3.95765 5.92758 2.49553
1 8.47463 9.49263 13.4046
1 7.33878 1.40736 6.15514
1 11.4152 3.86515 8.03429
1 6.27286 4.56828 9.06151
1 7.14953 3.01839 2.73631
1 8.13008 3.4452 4.80716
1 7.31946 1.83176 9.79123
1 6.22707 4.17518 2.18563
1 4.4472 4.15683 3.21069
1 6.0799 12.3058 1.83621
1 11.6049 9.05575 0.574936
1 7.8796 7.70225 11.4801
1 11.1911 6.38362 2.70023
1 2.59447 12.5411 4.84892
1 10.7812 13.2565 10.2056
1 13.0341 2.58327 12.2166
1 4.66353 0.33067 6.23621
1 5.11759 9.95454 2.48827
1 10.6216 11.3645 4.00853
1 4.50586 3.19447 3.52581
1 1.81531 5.44879 12.6258
1 7.09987 0.0469343 7.3343
1 6.92157 12.218 3.0792
1 8.35844 8.48656 12.426
1 1.43765 2.03269 12.5359
1 8.81661 4.77045 8.02013
1 11.0762 4.28006 6.98528
1 11.9609 1.00018 5.10098
1 10.8666 9.47017 7.12372
1 10.2719 13.1644 0.607453
1 4.80862 8.91948 8.97229
1 12.1844 4.16357 4.53323
1 10.7346 2.7752 9.56293
1 2.94778 3.05238 7.07454
1 8.90032 6.75255 9.37174
1 6.99957 3.18949 6.49721
1 13.1312 8.88567 12.4084
1 9.17302 1.57465 2.76564
1 3.91887 2.6257 11.1975
1 5.1089 11.0125 3.91775
1 4.25298 7.71527 5.83556
1 9.68104 12.4973 7.80906
1 5.52201 13.0785 2.47513
1 3.65929 6.57759 13.1342
1 5.39228 3.85397 2.78062
1 10.072 3.63663 0.691416
1 10.946 5.31511 4.71181
1 5.36084 10.5703 4.76745
1 6.4069 10.5378 9.65982
1 10.576 1.27218 2.58909
1 2.94059 1.49961 3.34218
1 13.2099 10.279 1.74233
1 8.38353 1.42865 4.90881
1 12.824 0.09044 3.49342
1 13.3489 6.59833 8.02756
1 6.09618 6.43274 6.97035
1 12.1682 10.5633 11.6937
1 4.10775 4.12035 1.2781
1 5.88178 11.3651 13.3408
1 0.408242 3.84855 5.83843
1 10.4109 11.7352 0.0882294
1 7.89464 6.77536 10.5252
1 11.0778 8.93561 8.18079
1 2.9844 6.03193 8.56354
1 6.21326 9.53868 2.94704
1 7.53374 10.8288 10.8333
1 4.2813 4.23581 9.08956
1 9.76055 9.27766 1.47462
1 8.24949 6.19478 8.08565
1 9.8019 13.0742 9.04852
1 5.88137 9.89228 9.00004
1 11.2936 1.15208 1.08448
1 12.1286 8.70375 1.94893
1 9.35595 9.77297 0.326369
1 2.60929 2.72386 2.6754
1 11.4675 11.8864 13.3638
1 10.3191 8.45065 7.37033
1 7.95683 8.32442 8.94595
1 3.06037 12.8376 7.22177
1 12.4282 7.50196 10.8678
1 6.21446 0.796764 11.7852
1 5.62186 11.3982 5.53142
1 0.613399 12.8957 9.3565
1 4.19234 5.77537 0.0619257
1 5.37873 12.5124 12.6574
1 12.2177 4.60278 8.14453
1 6.22195 0.434066 8.79934
1 12.4256 6.06893 4.10229
1 5.9468 4.52112 4.953
1 13.0979 10.4871 4.24224
1 13.0575 11.2718 9.73986
1 10.9235 8.15052 11.2973
1 1.65574 6.45496 10.3614
1 7.3439 12.051 5.131
1 7.82785 2.13886 10.6943
1 9.18949 2.55512 2.92488
1 0.555775 0.550885 11.1188
1 3.39148 5.04907 0.298839
1 10.2252 2.58524 1.06183
1 0.933047 1.23516 7.18787
1 3.68852 3.26035 12.2329
1 3.72091 12.2991 2.2881
1 5.0097 5.62728 8.15249
1 4.327 0.617474 11.1941
1 6.64373 11.2811 12.2931
1 4.0622 10.1082 2.44391
1 10.7151 0.177247 4.04814
1 2.79569 1.2081 12.3805
1 7.89 0.961616 10.4182
1 1.58685 8.5487 3.63656
1 0.775306 2.14522 5.38264
1 9.45892 8.96491 7.30241
1 3.31198 2.09257 9.05744
1 8.43704 4.35653 3.1588
1 0.651876 7.95251 11.1663
1 2.54855 0.169826 12.2505
1 13.3135 12.06 2.02404
1 5.2639 0.0396565 5.43469
1 13.1564 0.38249 2.54912
1 10.663 7.07318 7.19358
1 10.5678 3.33803 8.5345
1 1.58717 10.9502 8.94663
1 11.368 10.0027 9.9
1 7.23907 8.19222 0.716758
1 11.2159 3.87214 2.43228
1 5.96673 0.456531 6.91728
1 2.04822 6.96127 7.81684
1 0.323266 9.30004 7.19868
1 9.85857 1.53948 9.14538
1 3.90803 8.10096 4.93153
1 1.88622 4.30217 11.8361
1 2.18027 9.2322 5.64804
1 2.6942 3.09605 3.62256
1 2.94808 11.7729 10.9132
1 1.48359 10.7874 0.246713
1 5.01657 4.86326 3.89823
1 1.98925 12.3402 1.38084
1 4.66928 11.0983 12.1918
1 6.94732 7.08793 5.43921
1 12.7492 13.2299 10.3393
1 9.5865 0.992811 5.64606
1 3.03407 4.66045 5.07842
1 12.0323 12.6788 11.534
1 1.91214 7.61844 4.09302
1 0.876459 12.4869 11.8179
1 9.89809 10.2919 8.56281
1 9.08266 10.7982 4.82416
1 7.56082 4.34853 7.58519
1 9.31575 7.20016 1.29945
1 8.7871 7.81231 11.6864
1 12.8926 11.594 12.3422
1 0.939934 12.0275 6.71984
1 10.5854 9.47873 4.3939
1 1.02706 8.96662 12.922
1 5.79936 3.50949 12.1208
1 4.1343 12.3636 8.94236
1 3.22078 13.1976 5.5506
1 2.5343 9.96351 4.98523
1 2.79963 9.31407 1.63331
1 3.16953 10.231 9.60241
1 1.95775 3.75183 3.19938
1 6.78873 2.21322 8.97294
1 9.85232 0.831321 3.84253
1 1.51484 11.7814 13.05
1 3.17738 5.25666 1.966
1 2.43758 8.73534 13.055
1 11.4986 6.8989 8.71662
1 8.30462 10.3069 3.09818
1 3.6464 13.3459 6.5969
1 4.113 9.16916 9.67223
1 11.9521 0.639465 7.42581
1 8.33298 3.34744 5.72204
1 12.3016 6.49242 10.7328
1 5.49545 2.54959 12.9417
1 12.4031 11.1188 4.8315
1 9.90341 11.4694 2.29377
1 12.8766 12.2156 6.76741
1 12.4001 9.8912 1.13543
1 10.7841 0.821427 7.19477
1 10.4536 7.77237 5.20171
1 0.259436 0.897424 4.86524
1 9.10945 6.04782 11.7608
1 7.32606 10.5312 2.82093
1 5.90438 10.2553 3.67958
1 10.3692 6.58914 8.69944
1 12.6734 1.17879 8.01334
1 0.691883 5.35679 11.22
1 3.32214 8.47061 12.4662
1 13.4051 2.14007 6.39281
1 10.1098 5.67612 2.44929
1 11.6438 9.09307 9.31175
1 2.1694 9.06426 2.79497
1 4.19998 13.2716 5.17602
1 1.90387 4.39131 10.8067
1 6.2851 1.36075 9.60342
1 1.95801 5.92397 6.16981
1 13.1552 10.9993 6.77182
1 7.71463 13.2136 5.68832
1 11.35 6.5923 10.1902
1 11.6707 7.51178 11.5177
1 6.60278 2.22765 4.35188
1 0.73218 7.13486 7.49906
1 12.3752 4.44787 11.0489
1 3.00418 2.13101 4.52026
1 12.2307 6.32877 9.30844
1 1.2792 0.344766 9.86917
1 0.593309 6.7471 10.0358
1 2.72799 5.50736 0.863155
1 9.40508 3.15125 5.56728
1 1.9287 12.5502 10.688
1 8.02461 6.30292 0.50539
1 9.56975 2.93336 8.05506
1 8.42062 0.257954 4.681
1 2.66188 0.0455613 6.52938
1 7.0827 9.33982 1.23938
1 1.51597 5.1872 0.606098
1 8.91542 6.65753 10.7123
1 4.60672 2.09289 10.2695
1 0.875812 11.0245 6.72306
1 8.33885 13.358 1.44839
1 6.70987 13.3022 3.32824
1 5.96637 13.3026 4.30243
1 6.51361 12.1861 13.1255
1 1.49658 2.72137 5.02819
1 6.88315 3.3934 1.71975
1 7.96057 4.98087 8.27206
1 2.39943 0.926089 6.47639
1 6.27076 9.36139 6.16278
1 13.2253 11.2928 0.063021
1 7.50511 12.6979 4.18775
1 2.22996 6.78746 8.85561
1 5.72757 7.31298 10.9845
1 0.85636 3.80988 2.49774
1 2.26039 1.30424 10.0241
1 5.04605 9.31965 6.24399
1 9.86898 2.38507 6.33239
1 10.6497 5.99365 13.0293
1 5.25525 1.98525 5.5051
1 5.67125 5.44321 12.2567
1 7.1589 6.30411 6.439
1 9.95116 7.02718 10.5828
1 5.45854 7.21113 4.44838
1 11.891 11.6799 12.0318
1 9.72141 0.668851 13.3281
1 11.6605 7.66823 0.362062
1 9.06324 4.27324 3.93118
1 8.5139 9.09051 4.29986
1 11.7118 0.923432 12.4515
1 1.59388 2.39293 0.280919
1 0.0605079 5.93042 5.13824
1 10.1082 1.95013 3.09567
1 4.34877 3.48592 0.0482022
1 12.7733 0.347912 8.46976
1 3.61231 5.68805 12.0982
1 10.4335 4.21933 12.8953
1 6.40956 12.1355 9.58284
1 5.03082 0.799256 7.27099
1 6.61239 11.3324 7.86565
1 3.81518 3.19923 6.37943
1 11.4067 0.141817 6.79014
1 6.81741 7.5193 3.42572
1 9.89677 2.21197 13.3852
1 4.7324 4.07451 5.73793
1 10.4862 6.75 9.7393
1 4.81662 6.75102 3.04999
1 8.30781 9.50733 12.1386
1 3.9727 13.2706 1.7101
1 10.4774 8.40685 4.46751
1 0.0426237 5.87151 10.4974
1 8.39375 2.34967 4.16842
1 3.19135 8.82692 9.25462
1 4.37787 12.6302 12.502
1 12.3108 4.12031 13.3404
1 6.8139 9.06342 11.0766
1 11.7044 6.22962 13.0703
1 12.027 12.1941 5.86133
1 7.03685 7.32197 11.9532
1 5.43325 1.53511 10.3964
1 1.25874 3.31818 7.40533
1 7.41057 9.77703 3.625
1 2.16332 11.5862 7.59934
1 9.36084 0.580314 8.92345
1 10.0858 6.1539 7.30218
1 9.25933 0.957228 4.79114
1 6.32438 4.97201 5.81684
1 13.3384 10.6429 7.93144
1 4.5066 1.72682 2.24529
1 12.9209 9.49568 2.36447
1 0.939431 7.64862 9.38552
1 1.45204 12.5182 7.3568
1 13.2289 1.35797 0.9032
1 2.98309 9.89752 6.09247
1 0.864442 3.41137 9.85997
1 1.84143 2.38635 11.2044
1 3.77694 1.34782 10.5178
1 3.56834 4.47019 12.021
1 6.42113 5.12823 10.8455
1 2.99804 1.49998 5.51799
1 10.7882 12.2093 6.53564
1 9.70269 9.63575 10.8581
1 8.41313 9.16998 7.39962
1 4.51107 2.17448 8.37834
1 2.75292 10.1005 8.50634
1 9.23872 9.72186 4.54204
1 3.89118 2.63946 0.0543014
1 0.688236 3.36752 4.5795
1 12.7415 9.86111 11.0803
1 2.96533 7.75886 4.16683
1 9.24032 13.1615 0.00548104
1 12.4298 0.55173 1.97871
1 3.37369 8.52645 0.465137
1 9.04735 13.1475 12.5028
1 2.48168 7.86611 0.609001
1 2.57997 10.9819 13.2243
1 6.55536 9.46141 9.96077
1 5.09306 5.52084 3.08414
1 2.76207 7.70259 10.4307
1 6.33827 0.361886 2.07716
1 4.31589 10.7362 0.993383
1 3.35756 12.2958 6.2747
1 8.36717 4.36463 1.95118
1 5.28224 3.0034 8.58974
1 5.3743 2.46781 3.00859
1 0.301398 13.3063 5.22344
1 12.2432 7.27583 4.32509
1 7.66032 5.92937 9.01067
1 7.67718 11.6406 13.0257
1 12.5506 1.61 13.3803
1 7.10867 12.2577 11.8739
1 3.78365 1.81248 0.441988
1 5.69048 10.2909 10.2886
1 0.254418 3.69911 8.49008
1 7.46123 12.8533 12.6792
1 1.14591 1.91119 2.4725
1 12.1197 3.75341 6.86916
1 11.6175 7.16192 5.1825
1 7.96128 4.61178 9.12143
1 6.76674 6.00304 5.52118
1 1.6407 8.43775 9.2854
1 0.561488 4.08865 7.47861
1 13.0146 7.70639 0.926052
1 13.2672 1.43219 2.78605
1 2.33551 9.15015 6.8521
1 12.2651 9.81189 7.44791
1 13.277 4.52582 12.6755
1 4.76018 11.8675 3.81604
1 1.84719 5.94881 0.0555342
1 2.7558 1.33974 10.9304
1 4.63195 10.4467 5.26721
1 1.0307 5.83361 1.86552
1 12.5895 0.0324766 12.3728
1 12.788 7.372 5.23224
1 8.19117 12.2595 12.3205
1 12.2416 1.95397 11.6744
1 9.39379 12.4241 3.50747
1 3.73004 2.67586 1.68641
1 4.1344 6.34833 11.4752
1 5.04876 5.05963 9.98346
1 11.0462 0.377342 2.92394
1 8.05809 11.5606 7.1969
1 4.12329 8.21437 8.57045
1 11.8091 11.1255 0.825744
1 5.35092 6.92856 0.545096
1 8.23337 2.13076 0.802041
1 10.2469 8.88229 5.53812
1 0.241651 7.86139 5.23428
1 6.67602 6.6912 7.64795
1 0.38632 0.155746 8.19572
1 7.86891 11.3618 5.75088
1 5.45737 5.14508 9.05959
1 9.65724 6.01041 10.4703
1 5.5314 1.42688 12.1079
1 1.09113 1.50077 1.59137
1 4.71076 7.10732 11.2842
1 8.66607 6.67054 7.30463
1 12.9269 4.6051 7.52871
1 4.85231 11.9696 0.014427
1 9.8263 0.0573312 1.94988
1 0.120128 4.7425 11.5628
1 7.38321 9.31695 2.76841
1 10.8397 8.90204 3.34462
1 12.7857 2.02173 4.13126
1 3.76461 11.9145 12.7587
1 6.47048 0.13912 10.4225
1 3.60581 3.25516 3.22932
1 1.00167 6.2463 9.02616
1 8.79486 10.0456 5.49417
1 1.5156 13.3637 6.64108
1 6.02981 11.8635 2.64434
1 4.35423 12.9021 4.0311
1 10.4766 5.2167 1.70001
1 1.1338 1.24781 9.66836
1 4.3165 4.82234 5.79134
1 2.67661 12.7421 2.68687
1 1.2155 3.94913 8.43135
1 8.76797 0.389812 5.49768
1 0.33697 3.80688 1.42988
1 2.92829 0.090016 1.44195
1 13.003 12.2093 5.21081
1 7.02569 1.30971 0.607691
1 11.5578 10.3852 2.3518
1 0.151828 5.89618 3.47124
1 2.49001 6.6805 0.130265
1 12.5315 10.4532 2.64879
1 9.59084 10.2357 6.26227
1 11.2718 6.62812 1.05903
1 13.2632 2.31501 0.413888
1 10.578 3.38605 6.52163
1 8.57129 11.9454 6.50742
1 13.2016 9.08669 5.14248
1 13.1499 3.92754 0.143069
1 7.18004 7.42456 10.7868
1 12.2489 3.56201 9.69614
1 4.95992 12.3937 7.82054
1 11.878 4.52105 9.91249
1 5.6618 7.87429 1.08031
1 13.2423 5.63125 1.98657
1 0.512487 2.96266 11.6486
1 3.42936 2.03834 2.49542
1 0.724984 2.22624 13.3651
1 4.20478 12.131 11.4366
1 11.3935 3.50402 9.13788
1 2.05147 0.0298884 5.76745
1 9.02094 7.59908 2.34985
1 9.00264 8.38503 13.2771
1 0.112755 0.695968 1.65913
1 5.40507 4.72878 2.46231
1 8.69577 12.8755 2.68676
1 3.61292 8.07651 2.81281
1 11.1518 10.12 3.29098
1 5.86659 7.00784 3.39484
1 1.33245 0.15331 11.9825
1 5.56179 2.83234 11.504
1 10.4424 5.26379 9.99928
1 9.4451 4.17763 13.3308
1 0.998974 1.34159 3.2908
1 9.26383 1.65113 12.5676
1 3.75103 2.44515 9.95795
1 9.07438 2.59932 0.730058
1 8.94259 8.54841 2.62996
1 3.15831 7.4055 7.20701
1 8.91672 8.15352 8.48347
1 4.27557 6.75537 8.97361
1 9.66765 11.7001 10.7958
1 13.2663 6.65946 7.05013
1 7.97455 9.84525 6.85276
1 9.31288 5.98993 8.08152
1 5.54514 1.13153 8.04554
1 10.8229 4.64643 3.56668
1 9.43188 11.4387 3.74852
1 6.48902 1.53874 5.758
1 13.202 12.5031 12.8805
1 0.302855 1.19853 8.17269
1 2.8171 7.18949 11.3753
1 10.8459 5.1019 2.4902
1 2.36996 5.15553 7.61936
1 3.76574 3.64129 9.75703
1 10.0644 12.9863 11.1778
1 2.58399 4.9009 11.556
1 10.0348 4.25389 10.5631
1 1.72962 5.72672 3.61048
1 7.65417 2.22569 13.3046
1 0.273376 11.1075 2.41206
1 11.9491 13.0697 4.12138
1 9.71371 8.10939 11.0141
1 7.40877 5.45233 5.96847
1 7.23402 5.11883 3.32419
1 2.50718 6.66754 6.11873
1 5.09594 12.4288 1.79797
1 6.14206 3.10597 8.42093
1 9.00992 9.75001 2.2905
1 9.64361 7.39445 3.27083
1 6.32301 4.12945 11.1328
1 5.7432 11.1043 1.77579
1 11.8225 7.18399 2.67142
1 4.66398 1.13591 12.9955
1 9.12612 10.6986 9.90224
1 7.36683 9.20412 12.6582
1 11.3017 0.0123453 11.2442
1 2.40045 9.71427 7.70598
1 0.127798 0.393521 9.40925
1 12.2724 3.80421 5.5153
1 12.3578 1.70868 3.20117
1 9.82436 8.75021 3.64074
1 13.0576 12.8954 9.3076
1 4.94417 8.5492 11.2488
1 9.10677 2.54602 10.7877
1 12.3001 5.59244 6.51337
1 2.30768 2.78032 5.55173
1 9.1376 8.87395 5.79211
1 7.69363 5.3952 11.6637
1 3.43337 12.6792 8.18015
1 2.56646 4.95054 3.82921
1 10.9462 11.4931 2.68099
1 8.84756 3.48514 8.42568
1 3.51701 11.3846 1.53911
1 3.96099 1.21605 3.02043
1 11.8549 2.14758 2.38051
1 6.20366 10.6977 7.36222
1 1.23272 8.31257 5.39451
1 13.3529 6.99097 4.46875
1 2.06646 9.62979 10.7302
1 0.812756 9.15118 3.83838
1 7.45031 5.31928 6.87581
1 0.976537 12.8366 5.91964
1 9.95511 4.26791 11.8248
1 4.40697 2.23542 6.10862
1 0.517073 2.99723 7.9093
1 4.31369 9.00642 0.173596
1 9.85214 10.3472 12.3818
1 8.1258 7.85205 1.77848
1 0.408635 12.766 10.6386
1 0.394531 6.90785 3.66168
1 6.63732 7.88693 4.48035
1 13.3238 7.71782 8.02315
1 0.105337 6.90186 1.37425
1 4.45444 3.96519 11.3306
1 9.9777 1.62688 11.7509
1 8.14544 4.84625 0.0509935
1 7.6002 4.19553 11.0265
1 3.07019 2.40359 12.4469
1 1.64716 2.72917 2.61407
1 1.90846 10.1634 6.64784
1 2.89942 10.6931 12.4028
1 3.90854 0.774217 0.0026371
1 5.89723 6.50603 1.61727
1 2.73761 3.17344 9.51307
1 13.0596 12.9978 5.91695
1 0.856913 13.0356 12.7754
1 5.76851 8.52241 5.79347
1 13.0127 1.68049 5.52849
1 3.8759 9.33212 3.73901
1 1.96045 9.22109 8.54432
1 12.5763 4.38456 8.92453
1 8.23509 13.1384 10.3669
1 0.0547034 8.19527 4.1636
1 11.7724 5.62104 8.42241
1 12.7038 1.67156 1.84025
1 4.87806 10.6064 1.68187
1 0.455721 2.44809 1.08121
1 1.8607 0.0394917 13.2407
1 1.10696 8.79905 6.32887
1 4.81731 6.83627 7.82115
1 12.8543 0.315632 0.808639
1 13.18 1.48278 7.14839
1 9.86737 8.39591 0.705899
1 4.79849 2.12094 11.2282
1 8.17295 4.24127 10.1814
1 13.029 8.44977 11.4278
1 5.14296 0.48828 1.46863
1 11.7061 0.218273 1.1143
1 4.83275 9.70616 1.0275
1 10.7282 1.42492 5.61062
1 6.56289 9.64102 8.37172
1 4.51608 10.2571 9.62223
1 5.94006 3.34711 6.22837
1 6.44756 2.06314 10.4591
1 4.5068 3.45568 8.00598
1 1.48539 11.4612 6.0066
1 8.30052 12.1522 3.523
1 2.55766 7.76201 12.9766
1 8.46646 7.59558 3.27582
1 12.5669 12.4342 1.25472
1 7.159 5.94955 10.9173
1 10.4846 10.8067 13.0861
1 5.59473 10.0397 5.80865
1 10.255 2.4758 12.3649
1 9.34311 13.378 3.02892
1 10.5042 6.49363 11.9517
1 1.69584 10.3089 8.26508
1 9.97883 4.02113 5.64846
1 11.6228 2.60727 7.89557
1 3.07944 5.76936 12.9432
1 10.3302 11.3701 6.292
1 10.4734 4.01473 7.88142
1 1.35721 11.487 11.782
1 8.39236 10.5899 6.16772
1 1.68159 5.33336 11.2929
1 6.41926 8.18364 12.5024
1 12.7591 11.2137 8.66777
1 6.17264 4.09083 1.16299
1 9.72539 2.14973 1.91828
1 12.4475 9.86025 12.4079
1 0.141687 12.1441 6.0152
1 7.03682 8.19028 13.2099
1 1.22704 8.61075 7.58703
1 12.3709 3.9531 1.75252
1 6.25521 3.26979 9.79852
1 5.60249 9.23421 7.67757
1 6.83213 9.21536 4.49918
1 10.4873 1.8172 6.77951
1 2.99932 5.78836 4.24153
1 6.40103 8.4877 1.11669
1 2.46956 9.10691 0.752979
1 8.26815 8.97507 5.25185
1 12.2438 8.3723 0.975576
1 3.99636 10.954 4.78415
1 9.43797 11.2309 7.03999
1 5.14026 6.1899 9.33393
1 4.66587 6.96607 6.46615
1 9.94086 13.2973 12.1595
1 4.57943 12.9896 9.87445
1 1.19687 0.3844 5.08194
1 0.060732 9.82062 3.47034
1 2.27393 6.067 9.54712
1 10.0417 7.94525 9.36124
1 0.823043 12.1866 2.90861
1 0.641241 12.4848 0.159249
1 2.8411 11.8558 3.56534
1 5.22312 5.70446 1.86098
1 4.78932 10.6647 3.10813
1 0.27343 6.40885 2.36519
1 5.07896 9.47982 13.3617
1 10.2695 1.92485 4.44114
1 10.873 4.63566 10.6126
1 6.31805 7.98273 8.73947
1 7.18261 6.78114 0.046792
1 1.72335 10.6758 4.82852
1 7.60718 4.06602 5.53851
1 12.7596 11.4466 7.70276
1 9.03865 1.06228 11.7338
1 2.88111 9.10322 4.42136
1 10.8608 4.76237 8.52362
1 12.8971 4.20474 9.92252
1 10.9804 7.18812 10.7414
1 10.4245 9.98911 0.914866
1 2.4571 6.60583 4.23209
1 10.1216 11.0025 3.25945
1 11.2827 6.35927 4.24674
1 11.5428 1.20726 6.36661
1 7.07043 5.5668 7.71595
1 0.105451 0.666302 12.0975
1 12.2334 10.9705 6.74335
1 2.5034 4.66032 6.01444
1 8.49537 6.12277 9.9278
1 4.85421 11.528 1.50914
1 8.12369 3.2864 10.3848
1 13.0678 12.6674 11.9915
1 6.40879 13.2356 9.45011
1 7.94868 3.35294 1.29675
1 5.84543 6.49833 5.32211
1 12.9056 9.09259 10.3029
1 10.4661 9.02229 9.36752
1 6.61882 12.3596 4.56296
1 1.39355 0.855291 6.33389
1 3.52716 8.52358 10.3642
1 1.28629 10.523 10.0058
1 1.56455 9.96538 1.34948
1 6.72794 12.9522 2.41429
1 6.13228 6.07491 12.9069
1 9.47084 13.029 5.99272
1 13.0326 5.19953 4.4288
1 9.46308 4.09356 1.46622
1 8.79972 0.478345 10.5713
1 11.6806 3.75009 11.0573
1 3.85988 1.64953 12.7519
1 9.78338 4.88976 7.47652
1 4.41137 4.5316 7.75215
1 2.56855 10.3193 0.962447
1 3.06922 1.1444 0.69145
1 1.44496 3.27732 1.12206
1 9.71514 12.3865 6.8438
1 11.4552 0.437083 5.78881
1 5.6838 7.45204 2.37368
1 8.78774 0.633046 12.8113
1 6.96707 8.64799 5.2434
1 7.0728 5.06727 9.36174
1 8.96796 10.2591 9.09686
1 11.7774 10.1272 6.65889
1 8.77285 10.419 13.137
1 11.2114 2.33564 12.0743
1 3.69554 2.74328 7.83698
1 6.8891 9.93485 2.07973
1 5.25847 12.8836 0.330836
1 2.68785 8.26703 11.8134
1 3.95507 2.87201 8.92494
1 9.92159 9.796 5.15325
1 11.6592 10.5258 5.58625
1 7.5783 12.9098 1.06574
1 8.82848 7.1254 5.73246
1 3.10408 10.8793 10.4044
1 5.42247 10.7665 9.18315
1 4.79514 1.90047 1.35425
1 10.9681 2.87361 1.9505
1 11.5924 10.4987 8.01064
1 6.15211 1.40356 2.75707
1 7.18596 9.07149 6.27249
1 9.14641 8.8199 11.7171
1 4.21303 6.29055 0.839413
1 1.34282 10.0213 9.22615
1 4.85481 6.30181 5.14625
1 3.39444 13.3669 4.43147
1 11.9088 8.66645 12.5443
1 2.89912 0.00599504 8.58827
1 4.65312 2.98953 11.7168
1 5.07644 7.49031 5.51248
1 6.54344 4.51947 3.158
1 4.86877 6.57162 1.82048
1 11.3318 12.5571 7.29534
1 13.2263 3.68948 11.2123
1 8.36075 13.2934 8.57862
1 6.05258 7.02912 12.8765
1 11.3913 10.9551 13.1694
1 11.2003 1.79567 11.1122
1 8.70777 11.1922 12.5226
1 9.45394 11.8181 5.94937
1 9.35828 7.68785 10.0094
1 0.144645 2.71829 8.84921
1 0.434651 3.30859 0.534772
1 7.97619 0.915246 5.62671
1 1.45328 4.02483 0.419115
1 10.2723 5.07709 5.61863
1 7.06575 4.58013 11.8008
1 3.51242 0.952468 11.5831
1 2.48525 5.04166 0.0300992
1 4.12362 11.2267 11.2057
1 10.3941 12.5892 1.36491
1 0.752327 5.62163 2.75832
1 10.8822 7.20964 2.04926
1 1.61561 1.96977 5.8313
1 5.25451 8.75691 1.0236
1 11.6856 6.44338 11.4547
1 1.39746 11.4545 10.5515
1 8.92397 8.38485 3.62598
1 6.21301 5.6187 3.7313
1 2.52413 5.08502 9.22292
1 3.42843 0.387067 3.50315
1 6.40186 8.46304 2.52943
1 1.19001 3.23919 5.80303
1 0.181939 8.81482 2.2456
1 2.41428 6.5237 7.03629
1 3.89398 10.2646 7.90907
1 0.333881 5.05909 0.928924
1 2.15297 10.4471 5.75203
1 4.82846 4.6051 4.9123
1 6.87703 5.02893 12.5883
1 4.53039 12.7561 2.62834
1 11.4377 3.33059 6.17972
1 5.97835 1.34863 1.32868
1 6.65235 10.1038 0.224596
1 7.57792 12.6767 2.11508
1 12.6019 8.00814 12.3703
1 5.12964 3.95636 7.20419
1 4.50978 12.2668 5.02543
1 1.77616 5.95309 7.67081
1 10.1918 5.60285 0.402663
1 6.75506 8.17029 6.24758
1 2.89491 5.61932 6.72437
1 3.79052 0.72201 4.78346
1 11.2931 5.06477 7.51549
1 9.19719 2.69018 12.801
1 10.732 7.08715 3.22195
1 12.6156 12.0602 10.3009
1 12.3227 10.8481 12.8281
1 6.14014 7.80201 0.0983682
1 7.14582 6.40367 1.10106
1 0.0222363 5.33158 9.59117
1 10.3193 12.2671 5.54444
1 8.28528 1.4523 12.485
1 0.57096 9.56949 1.56195
1 3.71453 1.27942 9.47933
1 7.51452 1.37916 11.4207
1 4.21971 5.05855 3.28279
1 2.81406 3.44973 1.74753
1 3.37977 12.4279 4.34114
1 8.1782 0.535218 11.8763
1 6.18599 10.2592 12.2618
1 3.2197 11.6379 7.18906
1 12.3168 0.363493 9.51766
1 10.896 13.0132 2.25213
1 10.7315 0.815155 12.1427
1 9.76758 3.61794 4.52412
1 1.8896 1.7589 7.03083
1 7.93379 12.8526 11.3347
1 6.17456 8.91178 9.07127
1 0.999148 5.65385 12.0809
1 1.27657 10.1872 3.84116
1 7.44206 5.99701 9.9823
1 3.68436 1.63841 4.06134
1 4.63921 9.89226 4.28517
1 4.9349 6.00811 10.8137
1 6.95742 11.762 1.72192
1 11.4325 1.2216 8.25113
1 0.262948 12.3157 1.09026
1 10.9384 5.01023 12.2577
1 7.91324 3.86165 8.31918
1 5.43097 9.24011 10.54
1 2.7044 3.63733 12.1529
1 7.51259 12.2087 6.12091
1 11.4054 13.3899 13.2572
1 12.8936 9.34641 4.09615
1 10.4635 7.74502 10.1237
1 9.60869 1.39366 10.1767
1 6.50222 1.61237 11.3922
1 11.4801 6.1043 5.39699
1 8.01185 9.6932 9.17365
1 3.21272 4.34923 9.25511
1 4.71125 7.74751 2.95687
1 0.72646 11.6004 7.94761
1 1.02096 5.74982 10.3803
1 7.91434 1.30067 0.106629
1 2.58501 6.04302 3.05415
1 10.879 1.99577 0.416557
1 7.96566 8.54741 6.48477
1 2.77503 2.41588 11.4689
1 3.9092 6.68051 1.82926
1 0.0458777 8.47175 6.1063
1 4.07257 8.60491 11.5541
1 4.88347 2.48765 9.21095
1 8.40848 1.07411 7.08034
1 8.50285 10.4874 11.8175
1 2.14633 0.410617 10.2401
1 4.17058 3.61505 2.24122
1 3.08255 8.94083 7.99538
1 5.77728 12.6608 10.396
1 10.1809 6.81085 4.28073
1 8.64239 7.57747 10.6709
1 0.244662 8.15363 12.3323
1 0.999065 7.08579 2.75412
1 6.93254 1.59485 12.3068
1 8.16905 5.42183 10.7553
1 8.99589 1.85819 9.37993
1 5.04444 2.4158 4.22061
1 11.088 2.56546 13.1173
1 8.61436 8.08397 7.31414
1 2.99728 13.1393 0.459145
1 1.06243 7.95293 4.4269
1 3.96252 10.8969 7.0618
1 1.96059 12.6385 12.5329
1 3.11812 12.6284 9.29592
1 5.58034 11.397 12.3253
1 4.72204 7.93556 0.358483
1 9.3255 6.38425 5.76892
1 1.66926 5.96923 4.61695
1 9.2621 4.94141 2.07521
1 10.934 4.31685 4.55722
1 0.00810311 6.01219 11.5742
1 6.44596 10.9595 0.876435
1 5.02747 8.06091 4.23315
1 4.97895 7.57975 7.28033
1 9.09949 6.27551 13.2
1 7.29197 12.5739 0.160045
1 4.44862 4.86973 12.6954
1 9.37072 3.8803 2.6246
1 2.91891 0.40043 9.47261
1 3.2984 12.0653 0.162174
1 8.28544 1.01415 8.77114
1 1.21213 4.36609 9.94879
1 9.36963 7.48697 4.25896
1 1.14092 2.80768 10.7992
1 7.34196 1.79324 4.91615
1 4.39709 11.2924 9.00967
1 11.4909 1.79049 7.4234
1 2.19617 4.62937 1.81821
1 6.24854 6.14426 0.740876
1 5.67461 10.1861 1.37593
1 12.571 5.65238 5.51061
1 12.8761 12.009 11.2786
1 3.36786 1.57309 1.60081
1 0.805698 9.38504 2.6241
1 3.7546 13.1024 11.5664
1 2.84867 3.35497 6.19637
1 9.99982 8.69789 13.0766
1 1.93496 11.8978 3.15761
1 4.1432 5.30113 10.5353
1 2.35093 12.4694 0.142021
1 5.44218 11.2108 6.55781
1 6.90687 1.03817 10.6397
1 1.62233 12.7486 2.60121
1 8.98896 0.741662 2.24532
1 12.9603 0.683776 5.78576
1 2.33508 7.5971 6.49476
1 7.62279 3.59541 3.56922
1 2.18375 0.441332 11.3053
1 11.6498 2.60673 10.0029
1 0.961408 7.85779 6.55401
1 6.96342 1.06116 8.80976
1 1.99131 5.05973 10.1596
1 2.35498 3.56102 11.1428
1 1.21279 2.84994 9.04535
1 11.9981 4.66454 6.83051
1 8.62406 2.45351 8.56876
1 8.14345 7.65279 4.54901
1 3.50246 7.64632 13.3494
1 0.0830857 12.4078 3.62052
1 7.24733 3.4724 10.4314
1 11.227 2.3418 4.13862
1 0.801252 9.61123 8.15093
1 13.1541 10.0403 7.10043
1 1.30241 6.14696 5.56953
1 5.05103 1.4188 9.29275
1 6.19387 10.5595 5.18056
1 0.520705 8.9275 11.5943
1 4.04269 11.9818 0.743292
1 3.61169 11.8627 9.74781
1 7.71861 10.7486 3.66817
1 10.8916 0.482014 1.70531
1 1.77435 5.01759 4.77119
1 4.37766 6.08663 4.16286
1 8.05534 0.420348 2.38225
1 4.17695 5.15563 6.81901
1 0.223545 7.70431 2.42505
1 3.779 6.85975 10.5955
1 7.88661 4.48789 1.01131
1 12.6113 11.4477 2.83499
1 6.94829 10.9919 13.3663
1 8.98405 3.31861 3.64606
1 2.79059 1.41556 7.24822
1 13.1098 3.47753 9.36746
1 11.6219 11.5778 1.95285
1 4.37431 6.35872 10.0563
1 0.537301 1.07869 5.74208
1 10.1293 10.6757 5.63055
1 4.46894 0.912983 10.1123
1 0.568605 3.97209 12.8173
1 7.1497 10.0349 5.35555
1 4.78298 9.05631 1.79917
1 8.71061 7.69664 0.620799
1 0.793777 3.64577 3.44918
1 6.65746 11.2185 10.3211
1 4.0918 5.63362 9.31424
1 7.89835 9.97981 1.92963
1 4.16358 3.56204 4.8592
1 11.837 10.4347 10.786
1 7.77509 6.85254 3.66285
1 12.2315 1.38159 9.17966
1 5.32175 12.5814 4.39281
1 11.8842 3.26472 12.0221
1 11.8019 12.0389 7.98573
1 3.50268 7.7693 11.1643
1 8.75643 11.9045 7.76325
1 0.405905 13.1047 4.18708
1 9.78473 1.70747 0.744491
1 0.42063 12.9435 6.67954
1 8.35056 7.56676 12.6079
1 0.971042 6.47468 11.0527
1 8.92575 4.28204 5.28043
1 10.7538 3.39478 11.0207
1 3.75838 9.78166 5.12185
1 4.84186 3.24149 6.41672
1 5.35319 9.73964 12.2397
1 6.69784 2.08671 7.90002
1 2.78955 0.641724 13.3307
1 1.76009 1.67164 4.8599
1 10.8208 5.58604 3.49972
1 13.0444 10.9811 1.01496
1 9.16728 3.04428 1.65492
1 11.0954 9.89447 5.10625
1 0.168394 7.05413 9.05781
1 9.91176 2.21164 9.87948
1 2.43871 11.2355 6.63669
1 12.9485 5.42325 12.2741
1 10.1619 2.2565 11.0906
1 11.7039 5.01944 5.32804
1 0.14704 0.771216 6.53823
1 12.6651 3.68961 7.70196
1 6.30815 12.8158 12.1894
1 4.86771 0.0206254 13.1317
1 12.975 3.48115 6.01766
1 2.0745 2.22703 4.15675
1 11.8748 11.1732 9.86842
1 9.41004 3.59115 12.4004
1 4.3678 8.2402 1.26024
1 3.30949 5.8938 5.67722
1 2.41899 11.7567 12.597
1 5.50652 10.4081 8.16212
1 6.7419 10.9859 3.51347
1 0.84034 5.52801 4.40257
1 3.98972 13.0101 13.3369
1 1.93906 3.74754 9.13675
1 6.93683 3.1398 0.306764
1 4.17556 9.29262 10.6378
1 1.10213 9.88669 5.29858
1 4.42285 0.787407 2.3492
1 4.03029 6.61594 5.65015
1 7.52781 11.1415 0.861239
1 4.66637 3.29131 9.77576
1 2.39845 4.80081 2.8241
1 7.01697 4.28694 6.40217
1 6.57068 3.84171 5.72767
1 10.554 2.0911 7.70299
1 7.60034 12.5624 7.70554
1 9.39025 7.08015 11.8732
1 11.9679 2.54424 9.06496
1 5.41979 7.54251 9.20603
1 5.01553 9.47321 5.13987
1 12.8128 13.0385 0.13142
1 1.63728 12.7443 9.79819
1 5.82154 4.40105 3.99231
1 7.11777 5.72123 13.2581
1 0.458005 4.99375 7.20998
1 5.30268 6.04013 3.80896
1 4.17795 3.09642 1.00259
1 12.6548 5.3791 3.03859
1 11.6077 10.0807 0.67247
1 0.771933 10.7085 1.70478
1 9.84023 2.00041 5.4453
1 12.9343 3.05416 1.17918
1 4.51927 8.59424 5.54332
1 13.0062 2.46193 2.81615
1 5.92723 8.23655 7.66537
1 1.79027 3.72774 2.07978
1 12.4178 9.11428 11.6872
1 12.9898 10.6673 10.658
1 0.987723 10.0349 12.1466
1 10.937 11.564 10.9095
1 0.42536 8.59121 8.44447
1 2.44837 0.557135 3.28291
1 7.07078 6.28558 8.4199
1 7.96536 7.98031 5.64245
1 13.2048 4.3781 2.19276
1 5.90284 2.16016 0.592539
1 2.72845 4.61434 12.6135
1 8.90897 4.90716 12.7147
1 4.52122 6.89144 0.0539067
1 11.8671 9.72705 8.45829
1 1.43417 7.2628 5.96757
1 11.8605 7.52017 1.5555
1 10.2718 12.1044 2.95661
1 9.24888 12.5813 10.7308
1 7.2304 6.69478 4.57069
1 8.57403 6.2106 3.93154
1 3.05908 8.55425 3.50743
1 10.2112 0.635712 6.41209
1 9.07318 13.3555 11.4536
1 1.8828 6.88765 3.44944
1 2.44106 5.67066 5.0354
1 7.81916 5.99039 3.11483
1 1.31494 6.35798 12.6139
1 1.59446 1.28063 8.08644
1 5.3702 4.19464 10.7355
1 3.41154 11.0592 6.13787
1 10.6511 7.93245 0.0255209
1 5.66881 11.4039 8.00132
1 3.07978 3.17337 10.5875
1 3.74595 10.1711 10.643
1 12.8368 5.79266 7.56104
1 12.8029 6.24901 0.111367
1 8.07109 10.8095 9.34505
1 1.53596 12.4073 4.39662
1 2.03642 6.43775 11.2845
1 9.26034 9.94596 11.7254
1 3.15686 1.09971 8.73476
1 7.8135 9.29072 8.34861
1 6.4945 9.25775 11.9471
1 1.96882 0.871742 0.956486
1 13.3243 6.25822 9.41239
1 6.52835 5.39163 8.63809
1 5.89988 2.32101 9.54607
1 3.28433 5.30889 3.02127
1 6.93235 10.3353 4.451
1 4.66895 12.2624 10.3726
1 10.9061 12.1183 9.82662
1 3.98547 6.19933 8.26971
1 1.64412 6.34017 2.58918
1 3.78789 0.163898 10.1674
1 6.99705 13.1964 4.96516
1 6.87959 1.36986 1.69494
1 12.2272 8.5067 4.5835
1 12.1766 4.56282 2.56615
1 10.9798 8.36997 6.0634
1 2.22279 11.7277 2.201
1 13.2323 3.41712 5.03229
1 9.53159 6.90397 6.67704
1 11.0219 6.08061 6.81497
1 1.9089 1.3078 2.9707
1 3.30643 4.60781 7.18897
1 10.4551 0.488705 9.16105
1 4.54151 10.2712 8.63652
1 5.11461 8.42194 12.8983
1 3.27774 0.96644 2.38067
1 11.7467 5.37756 11.3324
1 10.1932 1.5201 12.7403
1 11.1371 12.9245 9.31773
1 8.79381 13.1446 3.76681
1 12.807 5.51853 1.07636
1 1.52557 7.97523 1.97596
1 4.61748 9.83773 7.48641
1 9.86396 4.69171 3.01046
1 2.15033 10.6993 10.8001
1 7.37738 1.85237 2.56511
1 11.1088 1.08977 4.53301
1 4.36245 7.90613 10.5589
1 3.72403 5.08593 8.53456
1 7.83357 10.0212 0.680287
1 10.4229 7.66979 1.30018
1 5.65091 12.741 9.00043
1 7.09993 0.729613 2.48409
1 12.6868 5.17665 10.1618
1 8.42674 5.07736 9.89711
1 2.33537 9.97813 0.0260637
1 2.24119 7.0817 5.31256
1 2.26786 3.99825 0.991885
1 11.2581 10.9221 6.88517
1 12.2225 5.4421 1.94475
1 8.81352 3.74189 7.36763
1 11.4964 0.943881 2.34267
1 2.86278 11.3657 4.41532
1 0.155747 7.20411 13.0419
1 12.7097 2.19989 9.67561
1 11.3954 0.634838 9.78856
1 1.89555 5.71439 8.67118
1 11.1211 2.94284 0.840047
1 7.18782 8.30328 12.0495
1 0.0502408 11.3624 3.38174
1 7.6801 5.83194 4.17315
1 8.34977 11.5893 11.4179
1 8.75616 11.3401 5.55165
1 10.2562 12.0271 11.695
1 9.74843 5.58245 12.8668
1 12.5507 7.65998 8.8478
1 4.94497 8.06592 1.98997
1 12.137 5.28307 12.9237
1 8.7385 12.4686 1.74645
1 1.59547 4.43541 13.0021
1 3.34903 2.37384 3.56549
1 8.86954 2.26999 5.24228
1 12.9282 0.346606 4.56224