2048
Atoms. Timestep: 0
1 0 0 0
1 0.837884 0.837884 0
1 0.837884 0 0.837884
1 0 0.837884 0.837884
1 1.67577 0 0
1 2.51365 0.837884 0
1 2.51365 0 0.837884
1 1.67577 0.837884 0.837884
1 3.35153 0 0
1 4.18942 0.837884 0
1 4.18942 0 0.837884
1 3.35153 0.837884 0.837884
1 5.0273 0 0
1 5.86519 0.837884 0
1 5.86519 0 0.837884
1 5.0273 0.837884 0.837884
1 6.70307 0 0
1 7.54095 0.837884 0
1 7.54095 0 0.837884
1 6.70307 0.837884 0.837884
1 8.37884 0 0
1 9.21672 0.837884 0
1 9.21672 0 0.837884
1 8.37884 0.837884 0.837884
1 10.0546 0 0
1 10.8925 0.837884 0
1 10.8925 0 0.837884
1 10.0546 0.837884 0.837884
1 11.7304 0 0
1 12.5683 0.837884 0
1 12.5683 0 0.837884
1 11.7304 0.837884 0.837884
1 0 1.67577 0
1 0.837884 2.51365 0
1 0.837884 1.67577 0.837884
1 0 2.51365 0.837884
1 1.67577 1.67577 0
1 2.51365 2.51365 0
1 2.51365 1.67577 0.837884
1 1.67577 2.51365 0.837884
1 3.35153 1.67577 0
1 4.18942 2.51365 0
1 4.18942 1.67577 0.837884
1 3.35153 2.51365 0.837884
1 5.0273 1.67577 0
1 5.86519 2.51365 0
1 5.86519 1.67577 0.837884
1 5.0273 2.51365 0.837884
1 6.70307 1.67577 0
1 7.54095 2.51365 0
1 7.54095 1.67577 0.837884
1 6.70307 2.51365 0.837884
1 8.37884 1.67577 0
1 9.21672 2.51365 0
1 9.21672 1.67577 0.837884
1 8.37884 2.51365 0.837884
1 10.0546 1.67577 0
1 10.8925 2.51365 0
1 10.8925 1.67577 0.837884
1 10.0546 2.51365 0.837884
1 11.7304 1.67577 0
1 12.5683 2.51365 0
1 12.5683 1.67577 0.837884
1 11.7304 2.51365 0.837884
1 0 3.35153 0
1 0.837884 4.18942 0
1 0.837884 3.35153 0.837884
1 0 4.18942 0.837884
1 1.67577 3.35153 0
1 2.51365 4.18942 0
1 2.51365 3.35153 0.837884
1 1.67577 4.18942 0.837884
1 3.35153 3.35153 0
1 4.18942 4.18942 0
1 4.18942 3.35153 0.837884
1 3.35153 4.18942 0.837884
1 5.0273 3.35153 0
1 5.86519 4.18942 0
1 5.86519 3.35153 0.837884
1 5.0273 4.18942 0.837884
1 6.70307 3.35153 0
1 7.54095 4.18942 0
1 7.54095 3.35153 0.837884
1 6.70307 4.18942 0.837884
1 8.37884 3.35153 0
1 9.21672 4.18942 0
1 9.21672 3.35153 0.837884
1 8.37884 4.18942 0.837884
1 10.0546 3.35153 0
1 10.8925 4.18942 0
1 10.8925 3.35153 0.837884
1 10.0546 4.18942 0.837884
1 11.7304 3.35153 0
1 12.5683 4.18942 0
1 12.5683 3.35153 0.837884
1 11.7304 4.18942 0.837884
1 0 5.0273 0
1 0.837884 5.86519 0
1 0.837884 5.0273 0.837884
1 0 5.86519 0.837884
1 1.67577 5.0273 0
1 2.51365 5.86519 0
1 2.51365 5.0273 0.837884
1 1.67577 5.86519 0.837884
1 3.35153 5.0273 0
1 4.18942 5.86519 0
1 4.18942 5.0273 0.837884
1 3.35153 5.86519 0.837884
1 5.0273 5.0273 0
1 5.86519 5.86519 0
1 5.86519 5.0273 0.837884
1 5.0273 5.86519 0.837884
1 6.70307 5.0273 0
1 7.54095 5.86519 0
1 7.54095 5.0273 0.837884
1 6.70307 5.86519 0.837884
1 8.37884 5.0273 0
1 9.21672 5.86519 0
1 9.21672 5.0273 0.837884
1 8.37884 5.86519 0.837884
1 10.0546 5.0273 0
1 10.8925 5.86519 0
1 10.8925 5.0273 0.837884
1 10.0546 5.86519 0.837884
1 11.7304 5.0273 0
1 12.5683 5.86519 0
1 12.5683 5.0273 0.837884
1 11.7304 5.86519 0.837884
1 0 0 1.67577
1 0.837884 0.837884 1.67577
1 0.837884 0 2.51365
1 0 0.837884 2.51365
1 1.67577 0 1.67577
1 2.51365 0.837884 1.67577
1 2.51365 0 2.51365
1 1.67577 0.837884 2.51365
1 3.35153 0 1.67577
1 4.18942 0.837884 1.67577
1 4.18942 0 2.51365
1 3.35153 0.837884 2.51365
1 5.0273 0 1.67577
1 5.86519 0.837884 1.67577
1 5.86519 0 2.51365
1 5.0273 0.837884 2.51365
1 6.70307 0 1.67577
1 7.54095 0.837884 1.67577
1 7.54095 0 2.51365
1 6.70307 0.837884 2.51365
1 8.37884 0 1.67577
1 9.21672 0.837884 1.67577
1 9.21672 0 2.51365
1 8.37884 0.837884 2.51365
1 10.0546 0 1.67577
1 10.8925 0.837884 1.67577
1 10.8925 0 2.51365
1 10.0546 0.837884 2.51365
1 11.7304 0 1.67577
1 12.5683 0.837884 1.67577
1 12.5683 0 2.51365
1 11.7304 0.837884 2.51365
1 0 1.67577 1.67577
1 0.837884 2.51365 1.67577
1 0.837884 1.67577 2.51365
1 0 2.51365 2.51365
1 1.67577 1.67577 1.67577
1 2.51365 2.51365 1.67577
1 2.51365 1.67577 2.51365
1 1.67577 2.51365 2.51365
1 3.35153 1.67577 1.67577
1 4.18942 2.51365 1.67577
1 4.18942 1.67577 2.51365
1 3.35153 2.51365 2.51365
1 5.0273 1.67577 1.67577
1 5.86519 2.51365 1.67577
1 5.86519 1.67577 2.51365
1 5.0273 2.51365 2.51365
1 6.70307 1.67577 1.67577
1 7.54095 2.51365 1.67577
1 7.54095 1.67577 2.51365
1 6.70307 2.51365 2.51365
1 8.37884 1.67577 1.67577
1 9.21672 2.51365 1.67577
1 9.21672 1.67577 2.51365
1 8.37884 2.51365 2.51365
1 10.0546 1.67577 1.67577
1 10.8925 2.51365 1.67577
1 10.8925 1.67577 2.51365
1 10.0546 2.51365 2.51365
1 11.7304 1.67577 1.67577
1 12.5683 2.51365 1.67577
1 12.5683 1.67577 2.51365
1 11.7304 2.51365 2.51365
1 0 3.35153 1.67577
1 0.837884 4.18942 1.67577
1 0.837884 3.35153 2.51365
1 0 4.18942 2.51365
1 1.67577 3.35153 1.67577
1 2.51365 4.18942 1.67577
1 2.51365 3.35153 2.51365
1 1.67577 4.18942 2.51365
1 3.35153 3.35153 1.67577
1 4.18942 4.18942 1.67577
1 4.18942 3.35153 2.51365
1 3.35153 4.18942 2.51365
1 5.0273 3.35153 1.67577
1 5.86519 4.18942 1.67577
1 5.86519 3.35153 2.51365
1 5.0273 4.18942 2.51365
1 6.70307 3.35153 1.67577
1 7.54095 4.18942 1.67577
1 7.54095 3.35153 2.51365
1 6.70307 4.18942 2.51365
1 8.37884 3.35153 1.67577
1 9.21672 4.18942 1.67577
1 9.21672 3.35153 2.51365
1 8.37884 4.18942 2.51365
1 10.0546 3.35153 1.67577
1 10.8925 4.18942 1.67577
1 10.8925 3.35153 2.51365
1 10.0546 4.18942 2.51365
1 11.7304 3.35153 1.67577
1 12.5683 4.18942 1.67577
1 12.5683 3.35153 2.51365
1 11.7304 4.18942 2.51365
1 0 5.0273 1.67577
1 0.837884 5.86519 1.67577
1 0.837884 5.0273 2.51365
1 0 5.86519 2.51365
1 1.67577 5.0273 1.67577
1 2.51365 5.86519 1.67577
1 2.51365 5.0273 2.51365
1 1.67577 5.86519 2.51365
1 3.35153 5.0273 1.67577
1 4.18942 5.86519 1.67577
1 4.18942 5.0273 2.51365
1 3.35153 5.86519 2.51365
1 5.0273 5.0273 1.67577
1 5.86519 5.86519 1.67577
1 5.86519 5.0273 2.51365
1 5.0273 5.86519 2.51365
1 6.70307 5.0273 1.67577
1 7.54095 5.86519 1.67577
1 7.54095 5.0273 2.51365
1 6.70307 5.86519 2.51365
1 8.37884 5.0273 1.67577
1 9.21672 5.86519 1.67577
1 9.21672 5.0273 2.51365
1 8.37884 5.86519 2.51365
1 10.0546 5.0273 1.67577
1 10.8925 5.86519 1.67577
1 10.8925 5.0273 2.51365
1 10.0546 5.86519 2.51365
1 11.7304 5.0273 1.67577
1 12.5683 5.86519 1.67577
1 12.5683 5.0273 2.51365
1 11.7304 5.86519 2.51365
1 0 0 3.35153
1 0.837884 0.837884 3.35153
1 0.837884 0 4.18942
1 0 0.837884 4.18942
1 1.67577 0 3.35153
1 2.51365 0.837884 3.35153
1 2.51365 0 4.18942
1 1.67577 0.837884 4.18942
1 3.35153 0 3.35153
1 4.18942 0.837884 3.35153
1 4.18942 0 4.18942
1 3.35153 0.837884 4.18942
1 5.0273 0 3.35153
1 5.86519 0.837884 3.35153
1 5.86519 0 4.18942
1 5.0273 0.837884 4.18942
1 6.70307 0 3.35153
1 7.54095 0.837884 3.35153
1 7.54095 0 4.18942
1 6.70307 0.837884 4.18942
1 8.37884 0 3.35153
1 9.21672 0.837884 3.35153
1 9.21672 0 4.18942
1 8.37884 0.837884 4.18942
1 10.0546 0 3.35153
1 10.8925 0.837884 3.35153
1 10.8925 0 4.18942
1 10.0546 0.837884 4.18942
1 11.7304 0 3.35153
1 12.5683 0.837884 3.35153
1 12.5683 0 4.18942
1 11.7304 0.837884 4.18942
1 0 1.67577 3.35153
1 0.837884 2.51365 3.35153
1 0.837884 1.67577 4.18942
1 0 2.51365 4.18942
1 1.67577 1.67577 3.35153
1 2.51365 2.51365 3.35153
1 2.51365 1.67577 4.18942
1 1.67577 2.51365 4.18942
1 3.35153 1.67577 3.35153
1 4.18942 2.51365 3.35153
1 4.18942 1.67577 4.18942
1 3.35153 2.51365 4.18942
1 5.0273 1.67577 3.35153
1 5.86519 2.51365 3.35153
1 5.86519 1.67577 4.18942
1 5.0273 2.51365 4.18942
1 6.70307 1.67577 3.35153
1 7.54095 2.51365 3.35153
1 7.54095 1.67577 4.18942
1 6.70307 2.51365 4.18942
1 8.37884 1.67577 3.35153
1 9.21672 2.51365 3.35153
1 9.21672 1.67577 4.18942
1 8.37884 2.51365 4.18942
1 10.0546 1.67577 3.35153
1 10.8925 2.51365 3.35153
1 10.8925 1.67577 4.18942
1 10.0546 2.51365 4.18942
1 11.7304 1.67577 3.35153
1 12.5683 2.51365 3.35153
1 12.5683 1.67577 4.18942
1 11.7304 2.51365 4.18942
1 0 3.35153 3.35153
1 0.837884 4.18942 3.35153
1 0.837884 3.35153 4.18942
1 0 4.18942 4.18942
1 1.67577 3.35153 3.35153
1 2.51365 4.18942 3.35153
1 2.51365 3.35153 4.18942
1 1.67577 4.18942 4.18942
1 3.35153 3.35153 3.35153
1 4.18942 4.18942 3.35153
1 4.18942 3.35153 4.18942
1 3.35153 4.18942 4.18942
1 5.0273 3.35153 3.35153
1 5.86519 4.18942 3.35153
1 5.86519 3.35153 4.18942
1 5.0273 4.18942 4.18942
1 6.70307 3.35153 3.35153
1 7.54095 4.18942 3.35153
1 7.54095 3.35153 4.18942
1 6.70307 4.18942 4.18942
1 8.37884 3.35153 3.35153
1 9.21672 4.18942 3.35153
1 9.21672 3.35153 4.18942
1 8.37884 4.18942 4.18942
1 10.0546 3.35153 3.35153
1 10.8925 4.18942 3.35153
1 10.8925 3.35153 4.18942
1 10.0546 4.18942 4.18942
1 11.7304 3.35153 3.35153
1 12.5683 4.18942 3.35153
1 12.5683 3.35153 4.18942
1 11.7304 4.18942 4.18942
1 0 5.0273 3.35153
1 0.837884 5.86519 3.35153
1 0.837884 5.0273 4.18942
1 0 5.86519 4.18942
1 1.67577 5.0273 3.35153
1 2.51365 5.86519 3.35153
1 2.51365 5.0273 4.18942
1 1.67577 5.86519 4.18942
1 3.35153 5.0273 3.35153
1 4.18942 5.86519 3.35153
1 4.18942 5.0273 4.18942
1 3.35153 5.86519 4.18942
1 5.0273 5.0273 3.35153
1 5.86519 5.86519 3.35153
1 5.86519 5.0273 4.18942
1 5.0273 5.86519 4.18942
1 6.70307 5.0273 3.35153
1 7.54095 5.86519 3.35153
1 7.54095 5.0273 4.18942
1 6.70307 5.86519 4.18942
1 8.37884 5.0273 3.35153
1 9.21672 5.86519 3.35153
1 9.21672 5.0273 4.18942
1 8.37884 5.86519 4.18942
1 10.0546 5.0273 3.35153
1 10.8925 5.86519 3.35153
1 10.8925 5.0273 4.18942
1 10.0546 5.86519 4.18942
1 11.7304 5.0273 3.35153
1 12.5683 5.86519 3.35153
1 12.5683 5.0273 4.18942
1 11.7304 5.86519 4.18942
1 0 0 5.0273
1 0.837884 0.837884 5.0273
1 0.837884 0 5.86519
1 0 0.837884 5.86519
1 1.67577 0 5.0273
1 2.51365 0.837884 5.0273
1 2.51365 0 5.86519
1 1.67577 0.837884 5.86519
1 3.35153 0 5.0273
1 4.18942 0.837884 5.0273
1 4.18942 0 5.86519
1 3.35153 0.837884 5.86519
1 5.0273 0 5.0273
1 5.86519 0.837884 5.0273
1 5.86519 0 5.86519
1 5.0273 0.837884 5.86519
1 6.70307 0 5.0273
1 7.54095 0.837884 5.0273
1 7.54095 0 5.86519
1 6.70307 0.837884 5.86519
1 8.37884 0 5.0273
1 9.21672 0.837884 5.0273
1 9.21672 0 5.86519
1 8.37884 0.837884 5.86519
1 10.0546 0 5.0273
1 10.8925 0.837884 5.0273
1 10.8925 0 5.86519
1 10.0546 0.837884 5.86519
1 11.7304 0 5.0273
1 12.5683 0.837884 5.0273
1 12.5683 0 5.86519
1 11.7304 0.837884 5.86519
1 0 1.67577 5.0273
1 0.837884 2.51365 5.0273
1 0.837884 1.67577 5.86519
1 0 2.51365 5.86519
1 1.67577 1.67577 5.0273
1 2.51365 2.51365 5.0273
1 2.51365 1.67577 5.86519
1 1.67577 2.51365 5.86519
1 3.35153 1.67577 5.0273
1 4.18942 2.51365 5.0273
1 4.18942 1.67577 5.86519
1 3.35153 2.51365 5.86519
1 5.0273 1.67577 5.0273
1 5.86519 2.51365 5.0273
1 5.86519 1.67577 5.86519
1 5.0273 2.51365 5.86519
1 6.70307 1.67577 5.0273
1 7.54095 2.51365 5.0273
1 7.54095 1.67577 5.86519
1 6.70307 2.51365 5.86519
1 8.37884 1.67577 5.0273
1 9.21672 2.51365 5.0273
1 9.21672 1.67577 5.86519
1 8.37884 2.51365 5.86519
1 10.0546 1.67577 5.0273
1 10.8925 2.51365 5.0273
1 10.8925 1.67577 5.86519
1 10.0546 2.51365 5.86519
1 11.7304 1.67577 5.0273
1 12.5683 2.51365 5.0273
1 12.5683 1.67577 5.86519
1 11.7304 2.51365 5.86519
1 0 3.35153 5.0273
1 0.837884 4.18942 5.0273
1 0.837884 3.35153 5.86519
1 0 4.18942 5.86519
1 1.67577 3.35153 5.0273
1 2.51365 4.18942 5.0273
1 2.51365 3.35153 5.86519
1 1.67577 4.18942 5.86519
1 3.35153 3.35153 5.0273
1 4.18942 4.18942 5.0273
1 4.18942 3.35153 5.86519
1 3.35153 4.18942 5.86519
1 5.0273 3.35153 5.0273
1 5.86519 4.18942 5.0273
1 5.86519 3.35153 5.86519
1 5.0273 4.18942 5.86519
1 6.70307 3.35153 5.0273
1 7.54095 4.18942 5.0273
1 7.54095 3.35153 5.86519
1 6.70307 4.18942 5.86519
1 8.37884 3.35153 5.0273
1 9.21672 4.18942 5.0273
1 9.21672 3.35153 5.86519
1 8.37884 4.18942 5.86519
1 10.0546 3.35153 5.0273
1 10.8925 4.18942 5.0273
1 10.8925 3.35153 5.86519
1 10.0546 4.18942 5.86519
1 11.7304 3.35153 5.0273
1 12.5683 4.18942 5.0273
1 12.5683 3.35153 5.86519
1 11.7304 4.18942 5.86519
1 0 5.0273 5.0273
1 0.837884 5.86519 5.0273
1 0.837884 5.0273 5.86519
1 0 5.86519 5.86519
1 1.67577 5.0273 5.0273
1 2.51365 5.86519 5.0273
1 2.51365 5.0273 5.86519
1 1.67577 5.86519 5.86519
1 3.35153 5.0273 5.0273
1 4.18942 5.86519 5.0273
1 4.18942 5.0273 5.86519
1 3.35153 5.86519 5.86519
1 5.0273 5.0273 5.0273
1 5.86519 5.86519 5.0273
1 5.86519 5.0273 5.86519
1 5.0273 5.86519 5.86519
1 6.70307 5.0273 5.0273
1 7.54095 5.86519 5.0273
1 7.54095 5.0273 5.86519
1 6.70307 5.86519 5.86519
1 8.37884 5.0273 5.0273
1 9.21672 5.86519 5.0273
1 9.21672 5.0273 5.86519
1 8.37884 5.86519 5.86519
1 10.0546 5.0273 5.0273
1 10.8925 5.86519 5.0273
1 10.8925 5.0273 5.86519
1 10.0546 5.86519 5.86519
1 11.7304 5.0273 5.0273
1 12.5683 5.86519 5.0273
1 12.5683 5.0273 5.86519
1 11.7304 5.86519 5.86519
1 0 0 6.70307
1 0.837884 0.837884 6.70307
1 0.837884 0 7.54095
1 0 0.837884 7.54095
1 1.67577 0 6.70307
1 2.51365 0.837884 6.70307
1 2.51365 0 7.54095
1 1.67577 0.837884 7.54095
1 3.35153 0 6.70307
1 4.18942 0.837884 6.70307
1 4.18942 0 7.54095
1 3.35153 0.837884 7.54095
1 5.0273 0 6.70307
1 5.86519 0.837884 6.70307
1 5.86519 0 7.54095
1 5.0273 0.837884 7.54095
1 6.70307 0 6.70307
1 7.54095 0.837884 6.70307
1 7.54095 0 7.54095
1 6.70307 0.837884 7.54095
1 8.37884 0 6.70307
1 9.21672 0.837884 6.70307
1 9.21672 0 7.54095
1 8.37884 0.837884 7.54095
1 10.0546 0 6.70307
1 10.8925 0.837884 6.70307
1 10.8925 0 7.54095
1 10.0546 0.837884 7.54095
1 11.7304 0 6.70307
1 12.5683 0.837884 6.70307
1 12.5683 0 7.54095
1 11.7304 0.837884 7.54095
1 0 1.67577 6.70307
1 0.837884 2.51365 6.70307
1 0.837884 1.67577 7.54095
1 0 2.51365 7.54095
1 1.67577 1.67577 6.70307
1 2.51365 2.51365 6.70307
1 2.51365 1.67577 7.54095
1 1.67577 2.51365 7.54095
1 3.35153 1.67577 6.70307
1 4.18942 2.51365 6.70307
1 4.18942 1.67577 7.54095
1 3.35153 2.51365 7.54095
1 5.0273 1.67577 6.70307
1 5.86519 2.51365 6.70307
1 5.86519 1.67577 7.54095
1 5.0273 2.51365 7.54095
1 6.70307 1.67577 6.70307
1 7.54095 2.51365 6.70307
1 7.54095 1.67577 7.54095
1 6.70307 2.51365 7.54095
1 8.37884 1.67577 6.70307
1 9.21672 2.51365 6.70307
1 9.21672 1.67577 7.54095
1 8.37884 2.51365 7.54095
1 10.0546 1.67577 6.70307
1 10.8925 2.51365 6.70307
1 10.8925 1.67577 7.54095
1 10.0546 2.51365 7.54095
1 11.7304 1.67577 6.70307
1 12.5683 2.51365 6.70307
1 12.5683 1.67577 7.54095
1 11.7304 2.51365 7.54095
1 0 3.35153 6.70307
1 0.837884 4.18942 6.70307
1 0.837884 3.35153 7.54095
1 0 4.18942 7.54095
1 1.67577 3.35153 6.70307
1 2.51365 4.18942 6.70307
1 2.51365 3.35153 7.54095
1 1.67577 4.18942 7.54095
1 3.35153 3.35153 6.70307
1 4.18942 4.18942 6.70307
1 4.18942 3.35153 7.54095
1 3.35153 4.18942 7.54095
1 5.0273 3.35153 6.70307
1 5.86519 4.18942 6.70307
1 5.86519 3.35153 7.54095
1 5.0273 4.18942 7.54095
1 6.70307 3.35153 6.70307
1 7.54095 4.18942 6.70307
1 7.54095 3.35153 7.54095
1 6.70307 4.18942 7.54095
1 8.37884 3.35153 6.70307
1 9.21672 4.18942 6.70307
1 9.21672 3.35153 7.54095
1 8.37884 4.18942 7.54095
1 10.0546 3.35153 6.70307
1 10.8925 4.18942 6.70307
1 10.8925 3.35153 7.54095
1 10.0546 4.18942 7.54095
1 11.7304 3.35153 6.70307
1 12.5683 4.18942 6.70307
1 12.5683 3.35153 7.54095
1 11.7304 4.18942 7.54095
1 0 5.0273 6.70307
1 0.837884 5.86519 6.70307
1 0.837884 5.0273 7.54095
1 0 5.86519 7.54095
1 1.67577 5.0273 6.70307
1 2.51365 5.86519 6.70307
1 2.51365 5.0273 7.54095
1 1.67577 5.86519 7.54095
1 3.35153 5.0273 6.70307
1 4.18942 5.86519 6.70307
1 4.18942 5.0273 7.54095
1 3.35153 5.86519 7.54095
1 5.0273 5.0273 6.70307
1 5.86519 5.86519 6.70307
1 5.86519 5.0273 7.54095
1 5.0273 5.86519 7.54095
1 6.70307 5.0273 6.70307
1 7.54095 5.86519 6.70307
1 7.54095 5.0273 7.54095
1 6.70307 5.86519 7.54095
1 8.37884 5.0273 6.70307
1 9.21672 5.86519 6.70307
1 9.21672 5.0273 7.54095
1 8.37884 5.86519 7.54095
1 10.0546 5.0273 6.70307
1 10.8925 5.86519 6.70307
1 10.8925 5.0273 7.54095
1 10.0546 5.86519 7.54095
1 11.7304 5.0273 6.70307
1 12.5683 5.86519 6.70307
1 12.5683 5.0273 7.54095
1 11.7304 5.86519 7.54095
1 0 0 8.37884
1 0.837884 0.837884 8.37884
1 0.837884 0 9.21672
1 0 0.837884 9.21672
1 1.67577 0 8.37884
1 2.51365 0.837884 8.37884
1 2.51365 0 9.21672
1 1.67577 0.837884 9.21672
1 3.35153 0 8.37884
1 4.18942 0.837884 8.37884
1 4.18942 0 9.21672
1 3.35153 0.837884 9.21672
1 5.0273 0 8.37884
1 5.86519 0.837884 8.37884
1 5.86519 0 9.21672
1 5.0273 0.837884 9.21672
1 6.70307 0 8.37884
1 7.54095 0.837884 8.37884
1 7.54095 0 9.21672
1 6.70307 0.837884 9.21672
1 8.37884 0 8.37884
1 9.21672 0.837884 8.37884
1 9.21672 0 9.21672
1 8.37884 0.837884 9.21672
1 10.0546 0 8.37884
1 10.8925 0.837884 8.37884
1 10.8925 0 9.21672
1 10.0546 0.837884 9.21672
1 11.7304 0 8.37884
1 12.5683 0.837884 8.37884
1 12.5683 0 9.21672
1 11.7304 0.837884 9.21672
1 0 1.67577 8.37884
1 0.837884 2.51365 8.37884
1 0.837884 1.67577 9.21672
1 0 2.51365 9.21672
1 1.67577 1.67577 8.37884
1 2.51365 2.51365 8.37884
1 2.51365 1.67577 9.21672
1 1.67577 2.51365 9.21672
1 3.35153 1.67577 8.37884
1 4.18942 2.51365 8.37884
1 4.18942 1.67577 9.21672
1 3.35153 2.51365 9.21672
1 5.0273 1.67577 8.37884
1 5.86519 2.51365 8.37884
1 5.86519 1.67577 9.21672
1 5.0273 2.51365 9.21672
1 6.70307 1.67577 8.37884
1 7.54095 2.51365 8.37884
1 7.54095 1.67577 9.21672
1 6.70307 2.51365 9.21672
1 8.37884 1.67577 8.37884
1 9.21672 2.51365 8.37884
1 9.21672 1.67577 9.21672
1 8.37884 2.51365 9.21672
1 10.0546 1.67577 8.37884
1 10.8925 2.51365 8.37884
1 10.8925 1.67577 9.21672
1 10.0546 2.51365 9.21672
1 11.7304 1.67577 8.37884
1 12.5683 2.51365 8.37884
1 12.5683 1.67577 9.21672
1 11.7304 2.51365 9.21672
1 0 3.35153 8.37884
1 0.837884 4.18942 8.37884
1 0.837884 3.35153 9.21672
1 0 4.18942 9.21672
1 1.67577 3.35153 8.37884
1 2.51365 4.18942 8.37884
1 2.51365 3.35153 9.21672
1 1.67577 4.18942 9.21672
1 3.35153 3.35153 8.37884
1 4.18942 4.18942 8.37884
1 4.18942 3.35153 9.21672
1 3.35153 4.18942 9.21672
1 5.0273 3.35153 8.37884
1 5.86519 4.18942 8.37884
1 5.86519 3.35153 9.21672
1 5.0273 4.18942 9.21672
1 6.70307 3.35153 8.37884
1 7.54095 4.18942 8.37884
1 7.54095 3.35153 9.21672
1 6.70307 4.18942 9.21672
1 8.37884 3.35153 8.37884
1 9.21672 4.18942 8.37884
1 9.21672 3.35153 9.21672
1 8.37884 4.18942 9.21672
1 10.0546 3.35153 8.37884
1 10.8925 4.18942 8.37884
1 10.8925 3.35153 9.21672
1 10.0546 4.18942 9.21672
1 11.7304 3.35153 8.37884
1 12.5683 4.18942 8.37884
1 12.5683 3.35153 9.21672
1 11.7304 4.18942 9.21672
1 0 5.0273 8.37884
1 0.837884 5.86519 8.37884
1 0.837884 5.0273 9.21672
1 0 5.86519 9.21672
1 1.67577 5.0273 8.37884
1 2.51365 5.86519 8.37884
1 2.51365 5.0273 9.21672
1 1.67577 5.86519 9.21672
1 3.35153 5.0273 8.37884
1 4.18942 5.86519 8.37884
1 4.18942 5.0273 9.21672
1 3.35153 5.86519 9.21672
1 5.0273 5.0273 8.37884
1 5.86519 5.86519 8.37884
1 5.86519 5.0273 9.21672
1 5.0273 5.86519 9.21672
1 6.70307 5.0273 8.37884
1 7.54095 5.86519 8.37884
1 7.54095 5.0273 9.21672
1 6.70307 5.86519 9.21672
1 8.37884 5.0273 8.37884
1 9.21672 5.86519 8.37884
1 9.21672 5.0273 9.21672
1 8.37884 5.86519 9.21672
1 10.0546 5.0273 8.37884
1 10.8925 5.86519 8.37884
1 10.8925 5.0273 9.21672
1 10.0546 5.86519 9.21672
1 11.7304 5.0273 8.37884
1 12.5683 5.86519 8.37884
1 12.5683 5.0273 9.21672
1 11.7304 5.86519 9.21672
1 0 0 10.0546
1 0.837884 0.837884 10.0546
1 0.837884 0 10.8925
1 0 0.837884 10.8925
1 1.67577 0 10.0546
1 2.51365 0.837884 10.0546
1 2.51365 0 10.8925
1 1.67577 0.837884 10.8925
1 3.35153 0 10.0546
1 4.18942 0.837884 10.0546
1 4.18942 0 10.8925
1 3.35153 0.837884 10.8925
1 5.0273 0 10.0546
1 5.86519 0.837884 10.0546
1 5.86519 0 10.8925
1 5.0273 0.837884 10.8925
1 6.70307 0 10.0546
1 7.54095 0.837884 10.0546
1 7.54095 0 10.8925
1 6.70307 0.837884 10.8925
1 8.37884 0 10.0546
1 9.21672 0.837884 10.0546
1 9.21672 0 10.8925
1 8.37884 0.837884 10.8925
1 10.0546 0 10.0546
1 10.8925 0.837884 10.0546
1 10.8925 0 10.8925
1 10.0546 0.837884 10.8925
1 11.7304 0 10.0546
1 12.5683 0.837884 10.0546
1 12.5683 0 10.8925
1 11.7304 0.837884 10.8925
1 0 1.67577 10.0546
1 0.837884 2.51365 10.0546
1 0.837884 1.67577 10.8925
1 0 2.51365 10.8925
1 1.67577 1.67577 10.0546
1 2.51365 2.51365 10.0546
1 2.51365 1.67577 10.8925
1 1.67577 2.51365 10.8925
1 3.35153 1.67577 10.0546
1 4.18942 2.51365 10.0546
1 4.18942 1.67577 10.8925
1 3.35153 2.51365 10.8925
1 5.0273 1.67577 10.0546
1 5.86519 2.51365 10.0546
1 5.86519 1.67577 10.8925
1 5.0273 2.51365 10.8925
1 6.70307 1.67577 10.0546
1 7.54095 2.51365 10.0546
1 7.54095 1.67577 10.8925
1 6.70307 2.51365 10.8925
1 8.37884 1.67577 10.0546
1 9.21672 2.51365 10.0546
1 9.21672 1.67577 10.8925
1 8.37884 2.51365 10.8925
1 10.0546 1.67577 10.0546
1 10.8925 2.51365 10.0546
1 10.8925 1.67577 10.8925
1 10.0546 2.51365 10.8925
1 11.7304 1.67577 10.0546
1 12.5683 2.51365 10.0546
1 12.5683 1.67577 10.8925
1 11.7304 2.51365 10.8925
1 0 3.35153 10.0546
1 0.837884 4.18942 10.0546
1 0.837884 3.35153 10.8925
1 0 4.18942 10.8925
1 1.67577 3.35153 10.0546
1 2.51365 4.18942 10.0546
1 2.51365 3.35153 10.8925
1 1.67577 4.18942 10.8925
1 3.35153 3.35153 10.0546
1 4.18942 4.18942 10.0546
1 4.18942 3.35153 10.8925
1 3.35153 4.18942 10.8925
1 5.0273 3.35153 10.0546
1 5.86519 4.18942 10.0546
1 5.86519 3.35153 10.8925
1 5.0273 4.18942 10.8925
1 6.70307 3.35153 10.0546
1 7.54095 4.18942 10.0546
1 7.54095 3.35153 10.8925
1 6.70307 4.18942 10.8925
1 8.37884 3.35153 10.0546
1 9.21672 4.18942 10.0546
1 9.21672 3.35153 10.8925
1 8.37884 4.18942 10.8925
1 10.0546 3.35153 10.0546
1 10.8925 4.18942 10.0546
1 10.8925 3.35153 10.8925
1 10.0546 4.18942 10.8925
1 11.7304 3.35153 10.0546
1 12.5683 4.18942 10.0546
1 12.5683 3.35153 10.8925
1 11.7304 4.18942 10.8925
1 0 5.0273 10.0546
1 0.837884 5.86519 10.0546
1 0.837884 5.0273 10.8925
1 0 5.86519 10.8925
1 1.67577 5.0273 10.0546
1 2.51365 5.86519 10.0546
1 2.51365 5.0273 10.8925
1 1.67577 5.86519 10.8925
1 3.35153 5.0273 10.0546
1 4.18942 5.86519 10.0546
1 4.18942 5.0273 10.8925
1 3.35153 5.86519 10.8925
1 5.0273 5.0273 10.0546
1 5.86519 5.86519 10.0546
1 5.86519 5.0273 10.8925
1 5.0273 5.86519 10.8925
1 6.70307 5.0273 10.0546
1 7.54095 5.86519 10.0546
1 7.54095 5.0273 10.8925
1 6.70307 5.86519 10.8925
1 8.37884 5.0273 10.0546
1 9.21672 5.86519 10.0546
1 9.21672 5.0273 10.8925
1 8.37884 5.86519 10.8925
1 10.0546 5.0273 10.0546
1 10.8925 5.86519 10.0546
1 10.8925 5.0273 10.8925
1 10.0546 5.86519 10.8925
1 11.7304 5.0273 10.0546
1 12.5683 5.86519 10.0546
1 12.5683 5.0273 10.8925
1 11.7304 5.86519 10.8925
1 0 0 11.7304
1 0.837884 0.837884 11.7304
1 0.837884 0 12.5683
1 0 0.837884 12.5683
1 1.67577 0 11.7304
1 2.51365 0.837884 11.7304
1 2.51365 0 12.5683
1 1.67577 0.837884 12.5683
1 3.35153 0 11.7304
1 4.18942 0.837884 11.7304
1 4.18942 0 12.5683
1 3.35153 0.837884 12.5683
1 5.0273 0 11.7304
1 5.86519 0.837884 11.7304
1 5.86519 0 12.5683
1 5.0273 0.837884 12.5683
1 6.70307 0 11.7304
1 7.54095 0.837884 11.7304
1 7.54095 0 12.5683
1 6.70307 0.837884 12.5683
1 8.37884 0 11.7304
1 9.21672 0.837884 11.7304
1 9.21672 0 12.5683
1 8.37884 0.837884 12.5683
1 10.0546 0 11.7304
1 10.8925 0.837884 11.7304
1 10.8925 0 12.5683
1 10.0546 0.837884 12.5683
1 11.7304 0 11.7304
1 12.5683 0.837884 11.7304
1 12.5683 0 12.5683
1 11.7304 0.837884 12.5683
1 0 1.67577 11.7304
1 0.837884 2.51365 11.7304
1 0.837884 1.67577 12.5683
1 0 2.51365 12.5683
1 1.67577 1.67577 11.7304
1 2.51365 2.51365 11.7304
1 2.51365 1.67577 12.5683
1 1.67577 2.51365 12.5683
1 3.35153 1.67577 11.7304
1 4.18942 2.51365 11.7304
1 4.18942 1.67577 12.5683
1 3.35153 2.51365 12.5683
1 5.0273 1.67577 11.7304
1 5.86519 2.51365 11.7304
1 5.86519 1.67577 12.5683
1 5.0273 2.51365 12.5683
1 6.70307 1.67577 11.7304
1 7.54095 2.51365 11.7304
1 7.54095 1.67577 12.5683
1 6.70307 2.51365 12.5683
1 8.37884 1.67577 11.7304
1 9.21672 2.51365 11.7304
1 9.21672 1.67577 12.5683
1 8.37884 2.51365 12.5683
1 10.0546 1.67577 11.7304
1 10.8925 2.51365 11.7304
1 10.8925 1.67577 12.5683
1 10.0546 2.51365 12.5683
1 11.7304 1.67577 11.7304
1 12.5683 2.51365 11.7304
1 12.5683 1.67577 12.5683
1 11.7304 2.51365 12.5683
1 0 3.35153 11.7304
1 0.837884 4.18942 11.7304
1 0.837884 3.35153 12.5683
1 0 4.18942 12.5683
1 1.67577 3.35153 11.7304
1 2.51365 4.18942 11.7304
1 2.51365 3.35153 12.5683
1 1.67577 4.18942 12.5683
1 3.35153 3.35153 11.7304
1 4.18942 4.18942 11.7304
1 4.18942 3.35153 12.5683
1 3.35153 4.18942 12.5683
1 5.0273 3.35153 11.7304
1 5.86519 4.18942 11.7304
1 5.86519 3.35153 12.5683
1 5.0273 4.18942 12.5683
1 6.70307 3.35153 11.7304
1 7.54095 4.18942 11.7304
1 7.54095 3.35153 12.5683
1 6.70307 4.18942 12.5683
1 8.37884 3.35153 11.7304
1 9.21672 4.18942 11.7304
1 9.21672 3.35153 12.5683
1 8.37884 4.18942 12.5683
1 10.0546 3.35153 11.7304
1 10.8925 4.18942 11.7304
1 10.8925 3.35153 12.5683
1 10.0546 4.18942 12.5683
1 11.7304 3.35153 11.7304
1 12.5683 4.18942 11.7304
1 12.5683 3.35153 12.5683
1 11.7304 4.18942 12.5683
1 0 5.0273 11.7304
1 0.837884 5.86519 11.7304
1 0.837884 5.0273 12.5683
1 0 5.86519 12.5683
1 1.67577 5.0273 11.7304
1 2.51365 5.86519 11.7304
1 2.51365 5.0273 12.5683
1 1.67577 5.86519 12.5683
1 3.35153 5.0273 11.7304
1 4.18942 5.86519 11.7304
1 4.18942 5.0273 12.5683
1 3.35153 5.86519 12.5683
1 5.0273 5.0273 11.7304
1 5.86519 5.86519 11.7304
1 5.86519 5.0273 12.5683
1 5.0273 5.86519 12.5683
1 6.70307 5.0273 11.7304
1 7.54095 5.86519 11.7304
1 7.54095 5.0273 12.5683
1 6.70307 5.86519 12.5683
1 8.37884 5.0273 11.7304
1 9.21672 5.86519 11.7304
1 9.21672 5.0273 12.5683
1 8.37884 5.86519 12.5683
1 10.0546 5.0273 11.7304
1 10.8925 5.86519 11.7304
1 10.8925 5.0273 12.5683
1 10.0546 5.86519 12.5683
1 11.7304 5.0273 11.7304
1 12.5683 5.86519 11.7304
1 12.5683 5.0273 12.5683
1 11.7304 5.86519 12.5683
1 0 6.70307 0
1 0.837884 7.54095 0
1 0.837884 6.70307 0.837884
1 0 7.54095 0.837884
1 1.67577 6.70307 0
1 2.51365 7.54095 0
1 2.51365 6.70307 0.837884
1 1.67577 7.54095 0.837884
1 3.35153 6.70307 0
1 4.18942 7.54095 0
1 4.18942 6.70307 0.837884
1 3.35153 7.54095 0.837884
1 5.0273 6.70307 0
1 5.86519 7.54095 0
1 5.86519 6.70307 0.837884
1 5.0273 7.54095 0.837884
1 6.70307 6.70307 0
1 7.54095 7.54095 0
1 7.54095 6.70307 0.837884
1 6.70307 7.54095 0.837884
1 8.37884 6.70307 0
1 9.21672 7.54095 0
1 9.21672 6.70307 0.837884
1 8.37884 7.54095 0.837884
1 10.0546 6.70307 0
1 10.8925 7.54095 0
1 10.8925 6.70307 0.837884
1 10.0546 7.54095 0.837884
1 11.7304 6.70307 0
1 12.5683 7.54095 0
1 12.5683 6.70307 0.837884
1 11.7304 7.54095 0.837884
1 0 8.37884 0
1 0.837884 9.21672 0
1 0.837884 8.37884 0.837884
1 0 9.21672 0.837884
1 1.67577 8.37884 0
1 2.51365 9.21672 0
1 2.51365 8.37884 0.837884
1 1.67577 9.21672 0.837884
1 3.35153 8.37884 0
1 4.18942 9.21672 0
1 4.18942 8.37884 0.837884
1 3.35153 9.21672 0.837884
1 5.0273 8.37884 0
1 5.86519 9.21672 0
1 5.86519 8.37884 0.837884
1 5.0273 9.21672 0.837884
1 6.70307 8.37884 0
1 7.54095 9.21672 0
1 7.54095 8.37884 0.837884
1 6.70307 9.21672 0.837884
1 8.37884 8.37884 0
1 9.21672 9.21672 0
1 9.21672 8.37884 0.837884
1 8.37884 9.21672 0.837884
1 10.0546 8.37884 0
1 10.8925 9.21672 0
1 10.8925 8.37884 0.837884
1 10.0546 9.21672 0.837884
1 11.7304 8.37884 0
1 12.5683 9.21672 0
1 12.5683 8.37884 0.837884
1 11.7304 9.21672 0.837884
1 0 10.0546 0
1 0.837884 10.8925 0
1 0.837884 10.0546 0.837884
1 0 10.8925 0.837884
1 1.67577 10.0546 0
1 2.51365 10.8925 0
1 2.51365 10.0546 0.837884
1 1.67577 10.8925 0.837884
1 3.35153 10.0546 0
1 4.18942 10.8925 0
1 4.18942 10.0546 0.837884
1 3.35153 10.8925 0.837884
1 5.0273 10.0546 0
1 5.86519 10.8925 0
1 5.86519 10.0546 0.837884
1 5.0273 10.8925 0.837884
1 6.70307 10.0546 0
1 7.54095 10.8925 0
1 7.54095 10.0546 0.837884
1 6.70307 10.8925 0.837884
1 8.37884 10.0546 0
1 9.21672 10.8925 0
1 9.21672 10.0546 0.837884
1 8.37884 10.8925 0.837884
1 10.0546 10.0546 0
1 10.8925 10.8925 0
1 10.8925 10.0546 0.837884
1 10.0546 10.8925 0.837884
1 11.7304 10.0546 0
1 12.5683 10.8925 0
1 12.5683 10.0546 0.837884
1 11.7304 10.8925 0.837884
1 0 11.7304 0
1 0.837884 12.5683 0
1 0.837884 11.7304 0.837884
1 0 12.5683 0.837884
1 1.67577 11.7304 0
1 2.51365 12.5683 0
1 2.51365 11.7304 0.837884
1 1.67577 12.5683 0.837884
1 3.35153 11.7304 0
1 4.18942 12.5683 0
1 4.18942 11.7304 0.837884
1 3.35153 12.5683 0.837884
1 5.0273 11.7304 0
1 5.86519 12.5683 0
1 5.86519 11.7304 0.837884
1 5.0273 12.5683 0.837884
1 6.70307 11.7304 0
1 7.54095 12.5683 0
1 7.54095 11.7304 0.837884
1 6.70307 12.5683 0.837884
1 8.37884 11.7304 0
1 9.21672 12.5683 0
1 9.21672 11.7304 0.837884
1 8.37884 12.5683 0.837884
1 10.0546 11.7304 0
1 10.8925 12.5683 0
1 10.8925 11.7304 0.837884
1 10.0546 12.5683 0.837884
1 11.7304 11.7304 0
1 12.5683 12.5683 0
1 12.5683 11.7304 0.837884
1 11.7304 12.5683 0.837884
1 0 6.70307 1.67577
1 0.837884 7.54095 1.67577
1 0.837884 6.70307 2.51365
1 0 7.54095 2.51365
1 1.67577 6.70307 1.67577
1 2.51365 7.54095 1.67577
1 2.51365 6.70307 2.51365
1 1.67577 7.54095 2.51365
1 3.35153 6.70307 1.67577
1 4.18942 7.54095 1.67577
1 4.18942 6.70307 2.51365
1 3.35153 7.54095 2.51365
1 5.0273 6.70307 1.67577
1 5.86519 7.54095 1.67577
1 5.86519 6.70307 2.51365
1 5.0273 7.54095 2.51365
1 6.70307 6.70307 1.67577
1 7.54095 7.54095 1.67577
1 7.54095 6.70307 2.51365
1 6.70307 7.54095 2.51365
1 8.37884 6.70307 1.67577
1 9.21672 7.54095 1.67577
1 9.21672 6.70307 2.51365
1 8.37884 7.54095 2.51365
1 10.0546 6.70307 1.67577
1 10.8925 7.54095 1.67577
1 10.8925 6.70307 2.51365
1 10.0546 7.54095 2.51365
1 11.7304 6.70307 1.67577
1 12.5683 7.54095 1.67577
1 12.5683 6.70307 2.51365
1 11.7304 7.54095 2.51365
1 0 8.37884 1.67577
1 0.837884 9.21672 1.67577
1 0.837884 8.37884 2.51365
1 0 9.21672 2.51365
1 1.67577 8.37884 1.67577
1 2.51365 9.21672 1.67577
1 2.51365 8.37884 2.51365
1 1.67577 9.21672 2.51365
1 3.35153 8.37884 1.67577
1 4.18942 9.21672 1.67577
1 4.18942 8.37884 2.51365
1 3.35153 9.21672 2.51365
1 5.0273 8.37884 1.67577
1 5.86519 9.21672 1.67577
1 5.86519 8.37884 2.51365
1 5.0273 9.21672 2.51365
1 6.70307 8.37884 1.67577
1 7.54095 9.21672 1.67577
1 7.54095 8.37884 2.51365
1 6.70307 9.21672 2.51365
1 8.37884 8.37884 1.67577
1 9.21672 9.21672 1.67577
1 9.21672 8.37884 2.51365
1 8.37884 9.21672 2.51365
1 10.0546 8.37884 1.67577
1 10.8925 9.21672 1.67577
1 10.8925 8.37884 2.51365
1 10.0546 9.21672 2.51365
1 11.7304 8.37884 1.67577
1 12.5683 9.21672 1.67577
1 12.5683 8.37884 2.51365
1 11.7304 9.21672 2.51365
1 0 10.0546 1.67577
1 0.837884 10.8925 1.67577
1 0.837884 10.0546 2.51365
1 0 10.8925 2.51365
1 1.67577 10.0546 1.67577
1 2.51365 10.8925 1.67577
1 2.51365 10.0546 2.51365
1 1.67577 10.8925 2.51365
1 3.35153 10.0546 1.67577
1 4.18942 10.8925 1.67577
1 4.18942 10.0546 2.51365